<?xml version="1.0" encoding="UTF-8"?>

<!-- generated on 2026-07-17 17:11:44 by Eclipse SUMO sumo Version 1.19.0
<configuration xmlns:xsi="http://www.w3.org/2001/XMLSchema-instance" xsi:noNamespaceSchemaLocation="http://sumo.dlr.de/xsd/sumoConfiguration.xsd">

    <input>
        <net-file value="test_random_offsets_seed20260708.net.xml"/>
        <route-files value="light_all_seed2_no_change.rou.xml"/>
    </input>

    <output>
        <tripinfo-output value="tripinfo_light_all_seed2_no_change.xml"/>
    </output>

    <time>
        <begin value="0"/>
    </time>

    <report>
        <duration-log.statistics value="true"/>
        <no-step-log value="true"/>
    </report>

</configuration>
-->

<tripinfos xmlns:xsi="http://www.w3.org/2001/XMLSchema-instance" xsi:noNamespaceSchemaLocation="http://sumo.dlr.de/xsd/tripinfo_file.xsd">
    <tripinfo id="light_all_seed2_veh_000026" depart="313.00" departLane="-E3_0" departPos="5.10" departSpeed="12.12" departDelay="0.57" arrival="340.00" arrivalLane="E4_0" arrivalPos="136.40" arrivalSpeed="11.71" duration="27.00" routeLength="276.73" waitingTime="0.00" waitingCount="0" stopTime="0.00" timeLoss="3.04" rerouteNo="0" devices="tripinfo_light_all_seed2_veh_000026" vType="car" speedFactor="0.87" vaporized=""/>
    <tripinfo id="light_all_seed2_veh_000014" depart="313.00" departLane="-E2_0" departPos="5.10" departSpeed="13.89" departDelay="0.57" arrival="346.00" arrivalLane="-E14_0" arrivalPos="136.40" arrivalSpeed="13.23" duration="33.00" routeLength="365.76" waitingTime="0.00" waitingCount="0" stopTime="0.00" timeLoss="4.90" rerouteNo="0" devices="tripinfo_light_all_seed2_veh_000014" vType="car" speedFactor="1.12" vaporized=""/>
    <tripinfo id="light_all_seed2_veh_000027" depart="313.00" departLane="-E3_1" departPos="5.10" departSpeed="12.74" departDelay="0.57" arrival="347.00" arrivalLane="E2_1" arrivalPos="136.40" arrivalSpeed="11.44" duration="34.00" routeLength="402.10" waitingTime="0.00" waitingCount="0" stopTime="0.00" timeLoss="1.97" rerouteNo="0" devices="tripinfo_light_all_seed2_veh_000027" vType="car" speedFactor="0.92" vaporized=""/>
    <tripinfo id="light_all_seed2_veh_000005" depart="314.00" departLane="E9_0" departPos="5.10" departSpeed="11.05" departDelay="1.57" arrival="353.00" arrivalLane="-E18_1" arrivalPos="136.40" arrivalSpeed="12.95" duration="39.00" routeLength="383.93" waitingTime="0.00" waitingCount="0" stopTime="0.00" timeLoss="10.04" rerouteNo="0" devices="tripinfo_light_all_seed2_veh_000005" vType="car" speedFactor="1.03" vaporized=""/>
    <tripinfo id="light_all_seed2_veh_000015" depart="313.00" departLane="-E2_1" departPos="5.10" departSpeed="13.77" departDelay="0.57" arrival="359.00" arrivalLane="E4_2" arrivalPos="136.40" arrivalSpeed="12.95" duration="46.00" routeLength="399.41" waitingTime="9.00" waitingCount="1" stopTime="0.00" timeLoss="16.14" rerouteNo="0" devices="tripinfo_light_all_seed2_veh_000015" vType="car" speedFactor="0.99" vaporized=""/>
    <tripinfo id="light_all_seed2_veh_000004" depart="315.00" departLane="E9_1" departPos="5.10" departSpeed="7.01" departDelay="2.57" arrival="360.00" arrivalLane="-E14_2" arrivalPos="136.40" arrivalSpeed="13.86" duration="45.00" routeLength="399.41" waitingTime="7.00" waitingCount="1" stopTime="0.00" timeLoss="15.79" rerouteNo="0" devices="tripinfo_light_all_seed2_veh_000004" vType="car" speedFactor="1.08" vaporized=""/>
    <tripinfo id="light_all_seed2_veh_000016" depart="314.00" departLane="-E2_0" departPos="5.10" departSpeed="10.34" departDelay="1.57" arrival="370.00" arrivalLane="-E17_0" arrivalPos="136.40" arrivalSpeed="11.85" duration="56.00" routeLength="577.47" waitingTime="0.00" waitingCount="0" stopTime="0.00" timeLoss="8.05" rerouteNo="0" devices="tripinfo_light_all_seed2_veh_000016" vType="car" speedFactor="0.93" vaporized=""/>
    <tripinfo id="light_all_seed2_veh_000038" depart="313.00" departLane="E17_2" departPos="5.10" departSpeed="13.89" departDelay="0.57" arrival="379.00" arrivalLane="-E10_1" arrivalPos="136.40" arrivalSpeed="12.77" duration="66.00" routeLength="399.41" waitingTime="30.00" waitingCount="1" stopTime="0.00" timeLoss="36.64" rerouteNo="0" devices="tripinfo_light_all_seed2_veh_000038" vType="car" speedFactor="1.18" vaporized=""/>
    <tripinfo id="light_all_seed2_veh_000017" depart="315.00" departLane="-E2_0" departPos="5.10" departSpeed="6.16" departDelay="2.57" arrival="383.00" arrivalLane="E19_1" arrivalPos="136.40" arrivalSpeed="11.51" duration="68.00" routeLength="488.44" waitingTime="11.00" waitingCount="2" stopTime="0.00" timeLoss="25.83" rerouteNo="0" devices="tripinfo_light_all_seed2_veh_000017" vType="car" speedFactor="0.88" vaporized=""/>
    <tripinfo id="light_all_seed2_veh_000002" depart="314.00" departLane="E9_1" departPos="5.10" departSpeed="10.23" departDelay="1.57" arrival="384.00" arrivalLane="E5_1" arrivalPos="136.40" arrivalSpeed="12.29" duration="70.00" routeLength="509.30" waitingTime="23.00" waitingCount="1" stopTime="0.00" timeLoss="30.53" rerouteNo="0" devices="tripinfo_light_all_seed2_veh_000002" vType="car" speedFactor="0.94" vaporized=""/>
    <tripinfo id="light_all_seed2_veh_000012" depart="313.00" departLane="E14_1" departPos="5.10" departSpeed="13.89" departDelay="0.57" arrival="387.00" arrivalLane="E19_1" arrivalPos="136.40" arrivalSpeed="13.06" duration="74.00" routeLength="402.10" waitingTime="37.00" waitingCount="1" stopTime="0.00" timeLoss="44.73" rerouteNo="0" devices="tripinfo_light_all_seed2_veh_000012" vType="car" speedFactor="1.03" vaporized=""/>
    <tripinfo id="light_all_seed2_veh_000031" depart="313.00" departLane="-E19_0" departPos="5.10" departSpeed="13.89" departDelay="0.57" arrival="389.00" arrivalLane="E4_1" arrivalPos="136.40" arrivalSpeed="13.80" duration="76.00" routeLength="383.93" waitingTime="40.00" waitingCount="1" stopTime="0.00" timeLoss="47.13" rerouteNo="0" devices="tripinfo_light_all_seed2_veh_000031" vType="car" speedFactor="1.18" vaporized=""/>
    <tripinfo id="light_all_seed2_veh_000032" depart="313.00" departLane="-E19_1" departPos="5.10" departSpeed="13.89" departDelay="0.57" arrival="398.00" arrivalLane="E5_1" arrivalPos="136.40" arrivalSpeed="13.03" duration="85.00" routeLength="491.13" waitingTime="39.00" waitingCount="1" stopTime="0.00" timeLoss="48.75" rerouteNo="0" devices="tripinfo_light_all_seed2_veh_000032" vType="car" speedFactor="1.15" vaporized=""/>
    <tripinfo id="light_all_seed2_veh_000022" depart="313.00" departLane="-E4_2" departPos="5.10" departSpeed="13.89" departDelay="0.57" arrival="403.00" arrivalLane="E3_2" arrivalPos="136.40" arrivalSpeed="13.20" duration="90.00" routeLength="292.21" waitingTime="63.00" waitingCount="1" stopTime="0.00" timeLoss="68.32" rerouteNo="0" devices="tripinfo_light_all_seed2_veh_000022" vType="car" speedFactor="1.01" vaporized=""/>
    <tripinfo id="light_all_seed2_veh_000034" depart="313.00" departLane="E18_1" departPos="5.10" departSpeed="13.89" departDelay="0.57" arrival="406.00" arrivalLane="-E9_2" arrivalPos="136.40" arrivalSpeed="13.08" duration="93.00" routeLength="399.41" waitingTime="51.00" waitingCount="2" stopTime="0.00" timeLoss="63.77" rerouteNo="0" devices="tripinfo_light_all_seed2_veh_000034" vType="car" speedFactor="1.17" vaporized=""/>
    <tripinfo id="light_all_seed2_veh_000030" depart="313.00" departLane="-E19_2" departPos="5.10" departSpeed="12.94" departDelay="0.57" arrival="418.00" arrivalLane="-E17_1" arrivalPos="136.40" arrivalSpeed="12.41" duration="105.00" routeLength="399.41" waitingTime="66.00" waitingCount="1" stopTime="0.00" timeLoss="73.20" rerouteNo="0" devices="tripinfo_light_all_seed2_veh_000030" vType="car" speedFactor="0.93" vaporized=""/>
    <tripinfo id="light_all_seed2_veh_000019" depart="313.00" departLane="-E5_2" departPos="5.10" departSpeed="13.00" departDelay="0.57" arrival="420.00" arrivalLane="E3_1" arrivalPos="136.40" arrivalSpeed="12.00" duration="107.00" routeLength="399.41" waitingTime="68.00" waitingCount="1" stopTime="0.00" timeLoss="75.63" rerouteNo="0" devices="tripinfo_light_all_seed2_veh_000019" vType="car" speedFactor="0.94" vaporized=""/>
    <tripinfo id="light_all_seed2_veh_000029" depart="314.00" departLane="-E3_1" departPos="5.10" departSpeed="9.67" departDelay="1.57" arrival="423.00" arrivalLane="-E14_0" arrivalPos="136.40" arrivalSpeed="12.92" duration="109.00" routeLength="488.44" waitingTime="58.00" waitingCount="2" stopTime="0.00" timeLoss="72.32" rerouteNo="0" devices="tripinfo_light_all_seed2_veh_000029" vType="car" speedFactor="1.13" vaporized=""/>
    <tripinfo id="light_all_seed2_veh_000010" depart="313.00" departLane="E14_0" departPos="5.10" departSpeed="11.90" departDelay="0.57" arrival="425.00" arrivalLane="-E9_1" arrivalPos="136.40" arrivalSpeed="11.39" duration="112.00" routeLength="383.93" waitingTime="69.00" waitingCount="2" stopTime="0.00" timeLoss="79.09" rerouteNo="0" devices="tripinfo_light_all_seed2_veh_000010" vType="car" speedFactor="0.86" vaporized=""/>
    <tripinfo id="light_all_seed2_veh_000018" depart="313.00" departLane="-E5_1" departPos="5.10" departSpeed="13.08" departDelay="0.57" arrival="426.00" arrivalLane="-E14_0" arrivalPos="136.40" arrivalSpeed="12.35" duration="113.00" routeLength="383.93" waitingTime="70.00" waitingCount="2" stopTime="0.00" timeLoss="82.49" rerouteNo="0" devices="tripinfo_light_all_seed2_veh_000018" vType="car" speedFactor="0.94" vaporized=""/>
    <tripinfo id="light_all_seed2_veh_000001" depart="313.00" departLane="E9_1" departPos="5.10" departSpeed="13.89" departDelay="0.57" arrival="427.00" arrivalLane="E5_0" arrivalPos="136.40" arrivalSpeed="13.73" duration="114.00" routeLength="681.98" waitingTime="51.00" waitingCount="1" stopTime="0.00" timeLoss="62.00" rerouteNo="0" devices="tripinfo_light_all_seed2_veh_000001" vType="car" speedFactor="1.06" vaporized=""/>
    <tripinfo id="light_all_seed2_veh_000006" depart="313.00" departLane="E10_1" departPos="5.10" departSpeed="11.54" departDelay="0.57" arrival="428.00" arrivalLane="E19_0" arrivalPos="136.40" arrivalSpeed="10.25" duration="115.00" routeLength="488.44" waitingTime="57.00" waitingCount="2" stopTime="0.00" timeLoss="70.72" rerouteNo="0" devices="tripinfo_light_all_seed2_veh_000006" vType="car" speedFactor="0.83" vaporized=""/>
    <tripinfo id="light_all_seed2_veh_000025" depart="314.00" departLane="-E4_0" departPos="5.10" departSpeed="10.46" departDelay="1.57" arrival="431.00" arrivalLane="E2_1" arrivalPos="136.40" arrivalSpeed="10.36" duration="117.00" routeLength="383.93" waitingTime="68.00" waitingCount="2" stopTime="0.00" timeLoss="82.29" rerouteNo="0" devices="tripinfo_light_all_seed2_veh_000025" vType="car" speedFactor="0.83" vaporized=""/>
    <tripinfo id="light_all_seed2_veh_000008" depart="314.00" departLane="E10_1" departPos="5.10" departSpeed="7.20" departDelay="1.57" arrival="443.00" arrivalLane="-E17_0" arrivalPos="136.40" arrivalSpeed="11.50" duration="129.00" routeLength="383.93" waitingTime="83.00" waitingCount="2" stopTime="0.00" timeLoss="96.71" rerouteNo="0" devices="tripinfo_light_all_seed2_veh_000008" vType="car" speedFactor="0.89" vaporized=""/>
    <tripinfo id="light_all_seed2_veh_000040" depart="314.00" departLane="E17_2" departPos="5.10" departSpeed="10.77" departDelay="1.57" arrival="452.00" arrivalLane="-E14_2" arrivalPos="136.40" arrivalSpeed="11.74" duration="138.00" routeLength="485.75" waitingTime="85.00" waitingCount="2" stopTime="0.00" timeLoss="96.95" rerouteNo="0" devices="tripinfo_light_all_seed2_veh_000040" vType="car" speedFactor="0.90" vaporized=""/>
    <tripinfo id="light_all_seed2_veh_000036" depart="314.00" departLane="E18_1" departPos="5.10" departSpeed="11.46" departDelay="1.57" arrival="454.00" arrivalLane="-E14_2" arrivalPos="136.40" arrivalSpeed="13.24" duration="140.00" routeLength="488.44" waitingTime="79.00" waitingCount="3" stopTime="0.00" timeLoss="103.16" rerouteNo="0" devices="tripinfo_light_all_seed2_veh_000036" vType="car" speedFactor="1.02" vaporized=""/>
    <tripinfo id="light_all_seed2_veh_000020" depart="314.00" departLane="-E5_1" departPos="5.10" departSpeed="9.96" departDelay="1.57" arrival="458.00" arrivalLane="-E18_1" arrivalPos="136.40" arrivalSpeed="12.69" duration="144.00" routeLength="613.81" waitingTime="81.00" waitingCount="3" stopTime="0.00" timeLoss="99.34" rerouteNo="0" devices="tripinfo_light_all_seed2_veh_000020" vType="car" speedFactor="1.16" vaporized=""/>
    <tripinfo id="light_all_seed2_veh_000039" depart="313.00" departLane="E17_1" departPos="5.10" departSpeed="13.89" departDelay="0.57" arrival="466.00" arrivalLane="E3_0" arrivalPos="136.40" arrivalSpeed="12.89" duration="153.00" routeLength="491.13" waitingTime="96.00" waitingCount="3" stopTime="0.00" timeLoss="116.47" rerouteNo="0" devices="tripinfo_light_all_seed2_veh_000039" vType="car" speedFactor="1.10" vaporized=""/>
    <tripinfo id="light_all_seed2_veh_000035" depart="313.00" departLane="E18_0" departPos="5.10" departSpeed="13.82" departDelay="0.57" arrival="467.00" arrivalLane="E4_1" arrivalPos="136.40" arrivalSpeed="13.60" duration="154.00" routeLength="491.13" waitingTime="99.00" waitingCount="3" stopTime="0.00" timeLoss="116.96" rerouteNo="0" devices="tripinfo_light_all_seed2_veh_000035" vType="car" speedFactor="0.99" vaporized=""/>
    <tripinfo id="light_all_seed2_veh_000033" depart="314.00" departLane="-E19_2" departPos="5.10" departSpeed="9.15" departDelay="1.57" arrival="468.00" arrivalLane="-E10_1" arrivalPos="136.40" arrivalSpeed="13.69" duration="154.00" routeLength="488.44" waitingTime="103.00" waitingCount="2" stopTime="0.00" timeLoss="117.73" rerouteNo="0" devices="tripinfo_light_all_seed2_veh_000033" vType="car" speedFactor="1.01" vaporized=""/>
    <tripinfo id="light_all_seed2_veh_000003" depart="313.00" departLane="E9_0" departPos="5.10" departSpeed="13.89" departDelay="0.57" arrival="469.00" arrivalLane="E4_1" arrivalPos="136.40" arrivalSpeed="13.62" duration="156.00" routeLength="595.64" waitingTime="88.00" waitingCount="3" stopTime="0.00" timeLoss="111.47" rerouteNo="0" devices="tripinfo_light_all_seed2_veh_000003" vType="car" speedFactor="1.01" vaporized=""/>
    <tripinfo id="light_all_seed2_veh_000009" depart="316.00" departLane="E10_1" departPos="5.10" departSpeed="7.39" departDelay="3.57" arrival="471.00" arrivalLane="E4_1" arrivalPos="136.40" arrivalSpeed="12.41" duration="155.00" routeLength="613.81" waitingTime="81.00" waitingCount="3" stopTime="0.00" timeLoss="107.02" rerouteNo="0" devices="tripinfo_light_all_seed2_veh_000009" vType="car" speedFactor="0.94" vaporized=""/>
    <tripinfo id="light_all_seed2_veh_000021" depart="315.00" departLane="-E5_1" departPos="5.10" departSpeed="5.81" departDelay="2.57" arrival="472.00" arrivalLane="E19_1" arrivalPos="136.40" arrivalSpeed="13.54" duration="157.00" routeLength="506.61" waitingTime="98.00" waitingCount="3" stopTime="0.00" timeLoss="119.38" rerouteNo="0" devices="tripinfo_light_all_seed2_veh_000021" vType="car" speedFactor="1.02" vaporized=""/>
    <tripinfo id="light_all_seed2_veh_000011" depart="313.00" departLane="E14_2" departPos="5.10" departSpeed="13.89" departDelay="0.57" arrival="474.00" arrivalLane="E5_1" arrivalPos="136.40" arrivalSpeed="13.03" duration="161.00" routeLength="399.41" waitingTime="120.00" waitingCount="2" stopTime="0.00" timeLoss="131.36" rerouteNo="0" devices="tripinfo_light_all_seed2_veh_000011" vType="car" speedFactor="1.09" vaporized=""/>
    <tripinfo id="light_all_seed2_veh_000041" depart="315.00" departLane="E17_2" departPos="5.10" departSpeed="6.00" departDelay="2.57" arrival="476.00" arrivalLane="E5_1" arrivalPos="136.40" arrivalSpeed="13.86" duration="161.00" routeLength="595.64" waitingTime="93.00" waitingCount="3" stopTime="0.00" timeLoss="115.90" rerouteNo="0" devices="tripinfo_light_all_seed2_veh_000041" vType="car" speedFactor="1.03" vaporized=""/>
    <tripinfo id="light_all_seed2_veh_000037" depart="315.00" departLane="E18_1" departPos="5.10" departSpeed="8.03" departDelay="2.57" arrival="478.00" arrivalLane="E5_1" arrivalPos="136.40" arrivalSpeed="12.85" duration="163.00" routeLength="598.33" waitingTime="84.00" waitingCount="4" stopTime="0.00" timeLoss="117.38" rerouteNo="0" devices="tripinfo_light_all_seed2_veh_000037" vType="car" speedFactor="0.97" vaporized=""/>
    <tripinfo id="light_all_seed2_veh_000007" depart="313.00" departLane="E10_2" departPos="5.10" departSpeed="13.89" departDelay="0.57" arrival="479.00" arrivalLane="E5_1" arrivalPos="136.40" arrivalSpeed="13.50" duration="166.00" routeLength="506.61" waitingTime="109.00" waitingCount="3" stopTime="0.00" timeLoss="129.11" rerouteNo="0" devices="tripinfo_light_all_seed2_veh_000007" vType="car" speedFactor="1.05" vaporized=""/>
    <tripinfo id="light_all_seed2_veh_000028" depart="313.00" departLane="-E3_2" departPos="5.10" departSpeed="13.18" departDelay="0.57" arrival="488.00" arrivalLane="-E17_1" arrivalPos="136.40" arrivalSpeed="12.11" duration="175.00" routeLength="506.61" waitingTime="117.00" waitingCount="3" stopTime="0.00" timeLoss="135.78" rerouteNo="0" devices="tripinfo_light_all_seed2_veh_000028" vType="car" speedFactor="0.95" vaporized=""/>
    <tripinfo id="light_all_seed2_veh_000023" depart="313.00" departLane="-E4_0" departPos="5.10" departSpeed="13.54" departDelay="0.57" arrival="513.00" arrivalLane="-E14_0" arrivalPos="136.40" arrivalSpeed="12.46" duration="200.00" routeLength="470.27" waitingTime="146.00" waitingCount="3" stopTime="0.00" timeLoss="162.84" rerouteNo="0" devices="tripinfo_light_all_seed2_veh_000023" vType="car" speedFactor="0.97" vaporized=""/>
    <tripinfo id="light_all_seed2_veh_000024" depart="313.00" departLane="-E4_1" departPos="5.10" departSpeed="12.36" departDelay="0.57" arrival="516.00" arrivalLane="-E18_2" arrivalPos="136.40" arrivalSpeed="11.65" duration="203.00" routeLength="506.61" waitingTime="147.00" waitingCount="3" stopTime="0.00" timeLoss="161.37" rerouteNo="0" devices="tripinfo_light_all_seed2_veh_000024" vType="car" speedFactor="0.89" vaporized=""/>
    <tripinfo id="light_all_seed2_veh_000013" depart="314.00" departLane="E14_2" departPos="5.10" departSpeed="10.30" departDelay="1.57" arrival="539.00" arrivalLane="E4_2" arrivalPos="136.40" arrivalSpeed="12.68" duration="225.00" routeLength="485.75" waitingTime="172.00" waitingCount="3" stopTime="0.00" timeLoss="188.34" rerouteNo="0" devices="tripinfo_light_all_seed2_veh_000013" vType="car" speedFactor="1.05" vaporized=""/>
    <tripinfo id="light_all_seed2_veh_000056" depart="608.00" departLane="-E2_1" departPos="5.10" departSpeed="13.83" departDelay="0.25" arrival="640.00" arrivalLane="E4_2" arrivalPos="136.40" arrivalSpeed="13.49" duration="32.00" routeLength="399.41" waitingTime="0.00" waitingCount="0" stopTime="0.00" timeLoss="1.99" rerouteNo="0" devices="tripinfo_light_all_seed2_veh_000056" vType="car" speedFactor="1.00" vaporized=""/>
    <tripinfo id="light_all_seed2_veh_000053" depart="608.00" departLane="E14_1" departPos="5.10" departSpeed="13.89" departDelay="0.25" arrival="657.00" arrivalLane="E19_1" arrivalPos="136.40" arrivalSpeed="13.85" duration="49.00" routeLength="402.10" waitingTime="12.00" waitingCount="1" stopTime="0.00" timeLoss="19.21" rerouteNo="0" devices="tripinfo_light_all_seed2_veh_000053" vType="car" speedFactor="1.02" vaporized=""/>
    <tripinfo id="light_all_seed2_veh_000072" depart="608.00" departLane="-E19_0" departPos="5.10" departSpeed="13.51" departDelay="0.25" arrival="659.00" arrivalLane="E4_1" arrivalPos="136.40" arrivalSpeed="12.34" duration="51.00" routeLength="383.93" waitingTime="14.00" waitingCount="1" stopTime="0.00" timeLoss="21.72" rerouteNo="0" devices="tripinfo_light_all_seed2_veh_000072" vType="car" speedFactor="0.97" vaporized=""/>
    <tripinfo id="light_all_seed2_veh_000094" depart="614.00" departLane="E14_1" departPos="5.10" departSpeed="12.80" departDelay="0.42" arrival="660.00" arrivalLane="E19_1" arrivalPos="136.40" arrivalSpeed="12.62" duration="46.00" routeLength="402.10" waitingTime="7.00" waitingCount="1" stopTime="0.00" timeLoss="14.42" rerouteNo="0" devices="tripinfo_light_all_seed2_veh_000094" vType="car" speedFactor="0.92" vaporized=""/>
    <tripinfo id="light_all_seed2_veh_000113" depart="614.00" departLane="-E19_0" departPos="5.10" departSpeed="13.89" departDelay="0.42" arrival="661.00" arrivalLane="E4_1" arrivalPos="136.40" arrivalSpeed="12.83" duration="47.00" routeLength="383.93" waitingTime="10.00" waitingCount="1" stopTime="0.00" timeLoss="18.30" rerouteNo="0" devices="tripinfo_light_all_seed2_veh_000113" vType="car" speedFactor="1.10" vaporized=""/>
    <tripinfo id="light_all_seed2_veh_000135" depart="623.00" departLane="E14_1" departPos="5.10" departSpeed="13.89" departDelay="0.56" arrival="662.00" arrivalLane="E19_1" arrivalPos="136.40" arrivalSpeed="12.60" duration="39.00" routeLength="402.10" waitingTime="0.00" waitingCount="0" stopTime="0.00" timeLoss="9.64" rerouteNo="0" devices="tripinfo_light_all_seed2_veh_000135" vType="car" speedFactor="1.23" vaporized=""/>
    <tripinfo id="light_all_seed2_veh_000154" depart="623.00" departLane="-E19_0" departPos="5.10" departSpeed="12.88" departDelay="0.56" arrival="665.00" arrivalLane="E4_1" arrivalPos="136.40" arrivalSpeed="11.81" duration="42.00" routeLength="383.93" waitingTime="3.00" waitingCount="1" stopTime="0.00" timeLoss="11.37" rerouteNo="0" devices="tripinfo_light_all_seed2_veh_000154" vType="car" speedFactor="0.93" vaporized=""/>
    <tripinfo id="light_all_seed2_veh_000073" depart="608.00" departLane="-E19_1" departPos="5.10" departSpeed="13.06" departDelay="0.25" arrival="671.00" arrivalLane="E5_1" arrivalPos="136.40" arrivalSpeed="12.34" duration="63.00" routeLength="491.13" waitingTime="16.00" waitingCount="1" stopTime="0.00" timeLoss="23.91" rerouteNo="0" devices="tripinfo_light_all_seed2_veh_000073" vType="car" speedFactor="0.94" vaporized=""/>
    <tripinfo id="light_all_seed2_veh_000114" depart="614.00" departLane="-E19_1" departPos="5.10" departSpeed="13.89" departDelay="0.42" arrival="673.00" arrivalLane="E5_1" arrivalPos="136.40" arrivalSpeed="12.81" duration="59.00" routeLength="491.13" waitingTime="12.00" waitingCount="1" stopTime="0.00" timeLoss="21.97" rerouteNo="0" devices="tripinfo_light_all_seed2_veh_000114" vType="car" speedFactor="1.01" vaporized=""/>
    <tripinfo id="light_all_seed2_veh_000063" depart="608.00" departLane="-E4_2" departPos="5.10" departSpeed="13.89" departDelay="0.25" arrival="674.00" arrivalLane="E3_2" arrivalPos="136.40" arrivalSpeed="13.82" duration="66.00" routeLength="292.21" waitingTime="38.00" waitingCount="1" stopTime="0.00" timeLoss="43.52" rerouteNo="0" devices="tripinfo_light_all_seed2_veh_000063" vType="car" speedFactor="1.02" vaporized=""/>
    <tripinfo id="light_all_seed2_veh_000155" depart="623.00" departLane="-E19_1" departPos="5.10" departSpeed="13.89" departDelay="0.56" arrival="675.00" arrivalLane="E5_1" arrivalPos="136.40" arrivalSpeed="12.63" duration="52.00" routeLength="491.13" waitingTime="5.00" waitingCount="1" stopTime="0.00" timeLoss="15.64" rerouteNo="0" devices="tripinfo_light_all_seed2_veh_000155" vType="car" speedFactor="1.06" vaporized=""/>
    <tripinfo id="light_all_seed2_veh_000075" depart="608.00" departLane="E18_1" departPos="5.10" departSpeed="13.27" departDelay="0.25" arrival="676.00" arrivalLane="-E9_2" arrivalPos="136.40" arrivalSpeed="12.92" duration="68.00" routeLength="399.41" waitingTime="31.00" waitingCount="1" stopTime="0.00" timeLoss="36.84" rerouteNo="0" devices="tripinfo_light_all_seed2_veh_000075" vType="car" speedFactor="0.96" vaporized=""/>
    <tripinfo id="light_all_seed2_veh_000104" depart="614.00" departLane="-E4_2" departPos="5.10" departSpeed="13.23" departDelay="0.42" arrival="676.00" arrivalLane="E3_2" arrivalPos="136.40" arrivalSpeed="13.22" duration="62.00" routeLength="292.21" waitingTime="32.00" waitingCount="1" stopTime="0.00" timeLoss="38.82" rerouteNo="0" devices="tripinfo_light_all_seed2_veh_000104" vType="car" speedFactor="0.95" vaporized=""/>
    <tripinfo id="light_all_seed2_veh_000116" depart="614.00" departLane="E18_1" departPos="5.10" departSpeed="12.81" departDelay="0.42" arrival="679.00" arrivalLane="-E9_2" arrivalPos="136.40" arrivalSpeed="11.78" duration="65.00" routeLength="399.41" waitingTime="26.00" waitingCount="1" stopTime="0.00" timeLoss="32.33" rerouteNo="0" devices="tripinfo_light_all_seed2_veh_000116" vType="car" speedFactor="0.92" vaporized=""/>
    <tripinfo id="light_all_seed2_veh_000145" depart="623.00" departLane="-E4_2" departPos="5.10" departSpeed="10.19" departDelay="0.56" arrival="682.00" arrivalLane="E3_2" arrivalPos="136.40" arrivalSpeed="9.10" duration="59.00" routeLength="292.21" waitingTime="22.00" waitingCount="1" stopTime="0.00" timeLoss="29.05" rerouteNo="0" devices="tripinfo_light_all_seed2_veh_000145" vType="car" speedFactor="0.73" vaporized=""/>
    <tripinfo id="light_all_seed2_veh_000071" depart="608.00" departLane="-E19_2" departPos="5.10" departSpeed="13.89" departDelay="0.25" arrival="687.00" arrivalLane="-E17_1" arrivalPos="136.40" arrivalSpeed="13.37" duration="79.00" routeLength="399.41" waitingTime="43.00" waitingCount="1" stopTime="0.00" timeLoss="48.85" rerouteNo="0" devices="tripinfo_light_all_seed2_veh_000071" vType="car" speedFactor="1.02" vaporized=""/>
    <tripinfo id="light_all_seed2_veh_000060" depart="608.00" departLane="-E5_2" departPos="5.10" departSpeed="13.47" departDelay="0.25" arrival="690.00" arrivalLane="E3_1" arrivalPos="136.40" arrivalSpeed="12.95" duration="82.00" routeLength="399.41" waitingTime="45.00" waitingCount="1" stopTime="0.00" timeLoss="51.39" rerouteNo="0" devices="tripinfo_light_all_seed2_veh_000060" vType="car" speedFactor="0.97" vaporized=""/>
    <tripinfo id="light_all_seed2_veh_000067" depart="608.00" departLane="-E3_0" departPos="5.10" departSpeed="12.60" departDelay="0.25" arrival="692.00" arrivalLane="E4_0" arrivalPos="136.40" arrivalSpeed="12.14" duration="84.00" routeLength="276.73" waitingTime="54.00" waitingCount="1" stopTime="0.00" timeLoss="60.96" rerouteNo="0" devices="tripinfo_light_all_seed2_veh_000067" vType="car" speedFactor="0.91" vaporized=""/>
    <tripinfo id="light_all_seed2_veh_000101" depart="614.00" departLane="-E5_2" departPos="5.10" departSpeed="13.89" departDelay="0.42" arrival="692.00" arrivalLane="E3_1" arrivalPos="136.40" arrivalSpeed="13.08" duration="78.00" routeLength="399.41" waitingTime="38.00" waitingCount="1" stopTime="0.00" timeLoss="48.14" rerouteNo="0" devices="tripinfo_light_all_seed2_veh_000101" vType="car" speedFactor="1.06" vaporized=""/>
    <tripinfo id="light_all_seed2_veh_000055" depart="608.00" departLane="-E2_0" departPos="5.10" departSpeed="13.89" departDelay="0.25" arrival="693.00" arrivalLane="-E14_0" arrivalPos="136.40" arrivalSpeed="13.53" duration="85.00" routeLength="365.76" waitingTime="50.00" waitingCount="1" stopTime="0.00" timeLoss="57.03" rerouteNo="0" devices="tripinfo_light_all_seed2_veh_000055" vType="car" speedFactor="1.00" vaporized=""/>
    <tripinfo id="light_all_seed2_veh_000142" depart="623.00" departLane="-E5_2" departPos="5.10" departSpeed="13.89" departDelay="0.56" arrival="693.00" arrivalLane="E3_1" arrivalPos="136.40" arrivalSpeed="12.74" duration="70.00" routeLength="399.41" waitingTime="33.00" waitingCount="1" stopTime="0.00" timeLoss="40.94" rerouteNo="0" devices="tripinfo_light_all_seed2_veh_000142" vType="car" speedFactor="1.16" vaporized=""/>
    <tripinfo id="light_all_seed2_veh_000108" depart="614.00" departLane="-E3_0" departPos="5.10" departSpeed="13.89" departDelay="0.42" arrival="694.00" arrivalLane="E4_0" arrivalPos="136.40" arrivalSpeed="13.00" duration="80.00" routeLength="276.73" waitingTime="49.00" waitingCount="1" stopTime="0.00" timeLoss="58.36" rerouteNo="0" devices="tripinfo_light_all_seed2_veh_000108" vType="car" speedFactor="1.03" vaporized=""/>
    <tripinfo id="light_all_seed2_veh_000051" depart="608.00" departLane="E14_0" departPos="5.10" departSpeed="11.87" departDelay="0.25" arrival="695.00" arrivalLane="-E9_1" arrivalPos="136.40" arrivalSpeed="11.31" duration="87.00" routeLength="383.93" waitingTime="43.00" waitingCount="2" stopTime="0.00" timeLoss="54.01" rerouteNo="0" devices="tripinfo_light_all_seed2_veh_000051" vType="car" speedFactor="0.85" vaporized=""/>
    <tripinfo id="light_all_seed2_veh_000059" depart="608.00" departLane="-E5_1" departPos="5.10" departSpeed="13.89" departDelay="0.25" arrival="695.00" arrivalLane="-E14_0" arrivalPos="136.40" arrivalSpeed="12.73" duration="87.00" routeLength="383.93" waitingTime="47.00" waitingCount="2" stopTime="0.00" timeLoss="58.43" rerouteNo="0" devices="tripinfo_light_all_seed2_veh_000059" vType="car" speedFactor="1.02" vaporized=""/>
    <tripinfo id="light_all_seed2_veh_000047" depart="608.00" departLane="E10_1" departPos="5.10" departSpeed="13.85" departDelay="0.25" arrival="696.00" arrivalLane="E19_0" arrivalPos="136.40" arrivalSpeed="13.24" duration="88.00" routeLength="488.44" waitingTime="39.00" waitingCount="2" stopTime="0.00" timeLoss="51.07" rerouteNo="0" devices="tripinfo_light_all_seed2_veh_000047" vType="car" speedFactor="1.00" vaporized=""/>
    <tripinfo id="light_all_seed2_veh_000149" depart="623.00" departLane="-E3_0" departPos="5.10" departSpeed="13.43" departDelay="0.56" arrival="696.00" arrivalLane="E4_0" arrivalPos="136.40" arrivalSpeed="12.19" duration="73.00" routeLength="276.73" waitingTime="43.00" waitingCount="1" stopTime="0.00" timeLoss="51.27" rerouteNo="0" devices="tripinfo_light_all_seed2_veh_000149" vType="car" speedFactor="0.97" vaporized=""/>