<?xml version="1.0" encoding="UTF-8"?>

<!-- generated on 2026-07-17 17:11:53 by Eclipse SUMO sumo Version 1.19.0
<configuration xmlns:xsi="http://www.w3.org/2001/XMLSchema-instance" xsi:noNamespaceSchemaLocation="http://sumo.dlr.de/xsd/sumoConfiguration.xsd">

    <input>
        <net-file value="test_random_offsets_seed20260708.net.xml"/>
        <route-files value="medium_core_no_change.rou.xml"/>
    </input>

    <output>
        <tripinfo-output value="tripinfo_medium_core_no_change.xml"/>
    </output>

    <time>
        <begin value="0"/>
    </time>

    <report>
        <duration-log.statistics value="true"/>
        <no-step-log value="true"/>
    </report>

</configuration>
-->

<tripinfos xmlns:xsi="http://www.w3.org/2001/XMLSchema-instance" xsi:noNamespaceSchemaLocation="http://sumo.dlr.de/xsd/tripinfo_file.xsd">
    <tripinfo id="medium_core_veh_000012" depart="0.00" departLane="E14_1" departPos="5.10" departSpeed="13.89" departDelay="0.00" arrival="31.00" arrivalLane="E19_1" arrivalPos="136.40" arrivalSpeed="13.58" duration="31.00" routeLength="402.10" waitingTime="0.00" waitingCount="0" stopTime="0.00" timeLoss="1.51" rerouteNo="0" devices="tripinfo_medium_core_veh_000012" vType="car" speedFactor="1.03" vaporized=""/>
    <tripinfo id="medium_core_veh_000019" depart="0.00" departLane="-E5_2" departPos="5.10" departSpeed="13.00" departDelay="0.00" arrival="60.00" arrivalLane="E3_1" arrivalPos="136.40" arrivalSpeed="12.86" duration="60.00" routeLength="399.41" waitingTime="21.00" waitingCount="1" stopTime="0.00" timeLoss="28.67" rerouteNo="0" devices="tripinfo_medium_core_veh_000019" vType="car" speedFactor="0.94" vaporized=""/>
    <tripinfo id="medium_core_veh_000018" depart="0.00" departLane="-E5_1" departPos="5.10" departSpeed="13.08" departDelay="0.00" arrival="63.00" arrivalLane="-E14_0" arrivalPos="136.40" arrivalSpeed="12.70" duration="63.00" routeLength="383.93" waitingTime="26.00" waitingCount="1" stopTime="0.00" timeLoss="32.32" rerouteNo="0" devices="tripinfo_medium_core_veh_000018" vType="car" speedFactor="0.94" vaporized=""/>
    <tripinfo id="medium_core_veh_000010" depart="0.00" departLane="E14_0" departPos="5.10" departSpeed="11.90" departDelay="0.00" arrival="65.00" arrivalLane="-E9_1" arrivalPos="136.40" arrivalSpeed="11.74" duration="65.00" routeLength="383.93" waitingTime="25.00" waitingCount="1" stopTime="0.00" timeLoss="31.90" rerouteNo="0" devices="tripinfo_medium_core_veh_000010" vType="car" speedFactor="0.86" vaporized=""/>
    <tripinfo id="medium_core_veh_000014" depart="0.00" departLane="-E2_0" departPos="5.10" departSpeed="13.89" departDelay="0.00" arrival="76.00" arrivalLane="-E14_0" arrivalPos="136.40" arrivalSpeed="13.81" duration="76.00" routeLength="365.76" waitingTime="40.00" waitingCount="1" stopTime="0.00" timeLoss="48.76" rerouteNo="0" devices="tripinfo_medium_core_veh_000014" vType="car" speedFactor="1.12" vaporized=""/>
    <tripinfo id="medium_core_veh_000005" depart="1.00" departLane="E9_0" departPos="5.10" departSpeed="11.05" departDelay="1.00" arrival="83.00" arrivalLane="-E18_1" arrivalPos="136.40" arrivalSpeed="13.27" duration="82.00" routeLength="383.93" waitingTime="38.00" waitingCount="2" stopTime="0.00" timeLoss="52.73" rerouteNo="0" devices="tripinfo_medium_core_veh_000005" vType="car" speedFactor="1.03" vaporized=""/>
    <tripinfo id="medium_core_veh_000008" depart="1.00" departLane="E10_1" departPos="5.10" departSpeed="7.20" departDelay="1.00" arrival="83.00" arrivalLane="-E17_0" arrivalPos="136.40" arrivalSpeed="12.23" duration="82.00" routeLength="383.93" waitingTime="42.00" waitingCount="1" stopTime="0.00" timeLoss="49.69" rerouteNo="0" devices="tripinfo_medium_core_veh_000008" vType="car" speedFactor="0.89" vaporized=""/>
    <tripinfo id="medium_core_veh_000015" depart="0.00" departLane="-E2_1" departPos="5.10" departSpeed="13.77" departDelay="0.00" arrival="89.00" arrivalLane="E4_2" arrivalPos="136.40" arrivalSpeed="13.03" duration="89.00" routeLength="399.41" waitingTime="46.00" waitingCount="2" stopTime="0.00" timeLoss="58.82" rerouteNo="0" devices="tripinfo_medium_core_veh_000015" vType="car" speedFactor="0.99" vaporized=""/>
    <tripinfo id="medium_core_veh_000004" depart="2.00" departLane="E9_1" departPos="5.10" departSpeed="7.01" departDelay="2.00" arrival="91.00" arrivalLane="-E14_2" arrivalPos="136.40" arrivalSpeed="13.01" duration="89.00" routeLength="399.41" waitingTime="43.00" waitingCount="2" stopTime="0.00" timeLoss="59.00" rerouteNo="0" devices="tripinfo_medium_core_veh_000004" vType="car" speedFactor="1.08" vaporized=""/>
    <tripinfo id="medium_core_veh_000020" depart="1.00" departLane="-E5_1" departPos="5.10" departSpeed="9.96" departDelay="1.00" arrival="99.00" arrivalLane="-E18_1" arrivalPos="136.40" arrivalSpeed="12.94" duration="98.00" routeLength="613.81" waitingTime="41.00" waitingCount="2" stopTime="0.00" timeLoss="52.86" rerouteNo="0" devices="tripinfo_medium_core_veh_000020" vType="car" speedFactor="1.16" vaporized=""/>
    <tripinfo id="medium_core_veh_000016" depart="1.00" departLane="-E2_0" departPos="5.10" departSpeed="10.34" departDelay="1.00" arrival="104.00" arrivalLane="-E17_0" arrivalPos="136.40" arrivalSpeed="12.45" duration="103.00" routeLength="577.47" waitingTime="40.00" waitingCount="1" stopTime="0.00" timeLoss="55.05" rerouteNo="0" devices="tripinfo_medium_core_veh_000016" vType="car" speedFactor="0.93" vaporized=""/>
    <tripinfo id="medium_core_veh_000021" depart="2.00" departLane="-E5_1" departPos="5.10" departSpeed="5.81" departDelay="2.00" arrival="112.00" arrivalLane="E19_1" arrivalPos="136.40" arrivalSpeed="13.54" duration="110.00" routeLength="506.61" waitingTime="58.00" waitingCount="2" stopTime="0.00" timeLoss="72.47" rerouteNo="0" devices="tripinfo_medium_core_veh_000021" vType="car" speedFactor="1.02" vaporized=""/>
    <tripinfo id="medium_core_veh_000011" depart="0.00" departLane="E14_2" departPos="5.10" departSpeed="13.89" departDelay="0.00" arrival="114.00" arrivalLane="E5_1" arrivalPos="136.40" arrivalSpeed="13.67" duration="114.00" routeLength="399.41" waitingTime="72.00" waitingCount="2" stopTime="0.00" timeLoss="83.93" rerouteNo="0" devices="tripinfo_medium_core_veh_000011" vType="car" speedFactor="1.09" vaporized=""/>
    <tripinfo id="medium_core_veh_000007" depart="0.00" departLane="E10_2" departPos="5.10" departSpeed="13.89" departDelay="0.00" arrival="116.00" arrivalLane="E5_1" arrivalPos="136.40" arrivalSpeed="13.06" duration="116.00" routeLength="506.61" waitingTime="60.00" waitingCount="3" stopTime="0.00" timeLoss="78.72" rerouteNo="0" devices="tripinfo_medium_core_veh_000007" vType="car" speedFactor="1.05" vaporized=""/>
    <tripinfo id="medium_core_veh_000017" depart="2.00" departLane="-E2_0" departPos="5.10" departSpeed="6.16" departDelay="2.00" arrival="116.00" arrivalLane="E19_1" arrivalPos="136.40" arrivalSpeed="11.29" duration="114.00" routeLength="488.44" waitingTime="53.00" waitingCount="3" stopTime="0.00" timeLoss="72.06" rerouteNo="0" devices="tripinfo_medium_core_veh_000017" vType="car" speedFactor="0.88" vaporized=""/>
    <tripinfo id="medium_core_veh_000033" depart="80.00" departLane="E14_1" departPos="5.10" departSpeed="13.89" departDelay="0.00" arrival="117.00" arrivalLane="E19_1" arrivalPos="136.40" arrivalSpeed="13.00" duration="37.00" routeLength="402.10" waitingTime="1.00" waitingCount="1" stopTime="0.00" timeLoss="7.95" rerouteNo="0" devices="tripinfo_medium_core_veh_000033" vType="car" speedFactor="1.01" vaporized=""/>
    <tripinfo id="medium_core_veh_000002" depart="1.00" departLane="E9_1" departPos="5.10" departSpeed="10.23" departDelay="1.00" arrival="118.00" arrivalLane="E5_1" arrivalPos="136.40" arrivalSpeed="12.53" duration="117.00" routeLength="509.30" waitingTime="63.00" waitingCount="2" stopTime="0.00" timeLoss="77.86" rerouteNo="0" devices="tripinfo_medium_core_veh_000002" vType="car" speedFactor="0.94" vaporized=""/>
    <tripinfo id="medium_core_veh_000040" depart="80.00" departLane="-E5_2" departPos="5.10" departSpeed="12.51" departDelay="0.00" arrival="151.00" arrivalLane="E3_1" arrivalPos="136.40" arrivalSpeed="12.37" duration="71.00" routeLength="399.41" waitingTime="31.00" waitingCount="1" stopTime="0.00" timeLoss="38.41" rerouteNo="0" devices="tripinfo_medium_core_veh_000040" vType="car" speedFactor="0.90" vaporized=""/>
    <tripinfo id="medium_core_veh_000039" depart="80.00" departLane="-E5_1" departPos="5.10" departSpeed="13.89" departDelay="0.00" arrival="153.00" arrivalLane="-E14_0" arrivalPos="136.40" arrivalSpeed="13.56" duration="73.00" routeLength="383.93" waitingTime="31.00" waitingCount="2" stopTime="0.00" timeLoss="44.28" rerouteNo="0" devices="tripinfo_medium_core_veh_000039" vType="car" speedFactor="1.10" vaporized=""/>
    <tripinfo id="medium_core_veh_000031" depart="80.00" departLane="E14_0" departPos="5.10" departSpeed="13.89" departDelay="0.00" arrival="155.00" arrivalLane="-E9_1" arrivalPos="136.40" arrivalSpeed="12.77" duration="75.00" routeLength="383.93" waitingTime="33.00" waitingCount="2" stopTime="0.00" timeLoss="46.10" rerouteNo="0" devices="tripinfo_medium_core_veh_000031" vType="car" speedFactor="1.18" vaporized=""/>
    <tripinfo id="medium_core_veh_000001" depart="0.00" departLane="E9_1" departPos="5.10" departSpeed="13.89" departDelay="0.00" arrival="157.00" arrivalLane="E5_0" arrivalPos="136.40" arrivalSpeed="13.09" duration="157.00" routeLength="681.98" waitingTime="89.00" waitingCount="2" stopTime="0.00" timeLoss="104.69" rerouteNo="0" devices="tripinfo_medium_core_veh_000001" vType="car" speedFactor="1.06" vaporized=""/>
    <tripinfo id="medium_core_veh_000006" depart="0.00" departLane="E10_1" departPos="5.10" departSpeed="11.54" departDelay="0.00" arrival="158.00" arrivalLane="E19_0" arrivalPos="136.40" arrivalSpeed="10.35" duration="158.00" routeLength="488.44" waitingTime="102.00" waitingCount="2" stopTime="0.00" timeLoss="113.65" rerouteNo="0" devices="tripinfo_medium_core_veh_000006" vType="car" speedFactor="0.83" vaporized=""/>
    <tripinfo id="medium_core_veh_000027" depart="80.00" departLane="E10_1" departPos="5.10" departSpeed="12.74" departDelay="0.00" arrival="159.00" arrivalLane="E19_0" arrivalPos="136.40" arrivalSpeed="11.97" duration="79.00" routeLength="488.44" waitingTime="25.00" waitingCount="1" stopTime="0.00" timeLoss="38.92" rerouteNo="0" devices="tripinfo_medium_core_veh_000027" vType="car" speedFactor="0.92" vaporized=""/>
    <tripinfo id="medium_core_veh_000035" depart="80.00" departLane="-E2_0" departPos="5.10" departSpeed="13.82" departDelay="0.00" arrival="167.00" arrivalLane="-E14_0" arrivalPos="136.40" arrivalSpeed="13.60" duration="87.00" routeLength="365.76" waitingTime="51.00" waitingCount="1" stopTime="0.00" timeLoss="59.00" rerouteNo="0" devices="tripinfo_medium_core_veh_000035" vType="car" speedFactor="0.99" vaporized=""/>
    <tripinfo id="medium_core_veh_000029" depart="81.00" departLane="E10_1" departPos="5.10" departSpeed="9.79" departDelay="1.00" arrival="171.00" arrivalLane="-E17_0" arrivalPos="136.40" arrivalSpeed="12.78" duration="90.00" routeLength="383.93" waitingTime="49.00" waitingCount="1" stopTime="0.00" timeLoss="61.59" rerouteNo="0" devices="tripinfo_medium_core_veh_000029" vType="car" speedFactor="1.13" vaporized=""/>
    <tripinfo id="medium_core_veh_000026" depart="81.00" departLane="E9_0" departPos="5.10" departSpeed="9.61" departDelay="1.00" arrival="174.00" arrivalLane="-E18_1" arrivalPos="136.40" arrivalSpeed="11.20" duration="93.00" routeLength="383.93" waitingTime="48.00" waitingCount="2" stopTime="0.00" timeLoss="60.53" rerouteNo="0" devices="tripinfo_medium_core_veh_000026" vType="car" speedFactor="0.87" vaporized=""/>
    <tripinfo id="medium_core_veh_000013" depart="1.00" departLane="E14_2" departPos="5.10" departSpeed="10.30" departDelay="1.00" arrival="179.00" arrivalLane="E4_2" arrivalPos="136.40" arrivalSpeed="13.56" duration="178.00" routeLength="485.75" waitingTime="121.00" waitingCount="3" stopTime="0.00" timeLoss="141.09" rerouteNo="0" devices="tripinfo_medium_core_veh_000013" vType="car" speedFactor="1.05" vaporized=""/>
    <tripinfo id="medium_core_veh_000036" depart="80.00" departLane="-E2_1" departPos="5.10" departSpeed="13.89" departDelay="0.00" arrival="181.00" arrivalLane="E4_2" arrivalPos="136.40" arrivalSpeed="12.68" duration="101.00" routeLength="399.41" waitingTime="58.00" waitingCount="2" stopTime="0.00" timeLoss="71.36" rerouteNo="0" devices="tripinfo_medium_core_veh_000036" vType="car" speedFactor="1.02" vaporized=""/>
    <tripinfo id="medium_core_veh_000025" depart="82.00" departLane="E9_1" departPos="5.10" departSpeed="7.53" departDelay="2.00" arrival="183.00" arrivalLane="-E14_2" arrivalPos="136.40" arrivalSpeed="10.92" duration="101.00" routeLength="399.41" waitingTime="52.00" waitingCount="2" stopTime="0.00" timeLoss="65.11" rerouteNo="0" devices="tripinfo_medium_core_veh_000025" vType="car" speedFactor="0.83" vaporized=""/>
    <tripinfo id="medium_core_veh_000041" depart="81.00" departLane="-E5_1" departPos="5.10" departSpeed="10.47" departDelay="1.00" arrival="188.00" arrivalLane="-E18_1" arrivalPos="136.40" arrivalSpeed="13.80" duration="107.00" routeLength="613.81" waitingTime="40.00" waitingCount="3" stopTime="0.00" timeLoss="62.35" rerouteNo="0" devices="tripinfo_medium_core_veh_000041" vType="car" speedFactor="1.03" vaporized=""/>
    <tripinfo id="medium_core_veh_000037" depart="81.00" departLane="-E2_0" departPos="5.10" departSpeed="10.36" departDelay="1.00" arrival="193.00" arrivalLane="-E17_0" arrivalPos="136.40" arrivalSpeed="12.50" duration="112.00" routeLength="577.47" waitingTime="50.00" waitingCount="1" stopTime="0.00" timeLoss="66.01" rerouteNo="0" devices="tripinfo_medium_core_veh_000037" vType="car" speedFactor="0.97" vaporized=""/>
    <tripinfo id="medium_core_veh_000009" depart="3.00" departLane="E10_1" departPos="5.10" departSpeed="7.39" departDelay="3.00" arrival="198.00" arrivalLane="E4_1" arrivalPos="136.40" arrivalSpeed="12.08" duration="195.00" routeLength="613.81" waitingTime="124.00" waitingCount="3" stopTime="0.00" timeLoss="146.71" rerouteNo="0" devices="tripinfo_medium_core_veh_000009" vType="car" speedFactor="0.94" vaporized=""/>
    <tripinfo id="medium_core_veh_000003" depart="0.00" departLane="E9_0" departPos="5.10" departSpeed="13.89" departDelay="0.00" arrival="199.00" arrivalLane="E4_1" arrivalPos="136.40" arrivalSpeed="13.17" duration="199.00" routeLength="595.64" waitingTime="127.00" waitingCount="4" stopTime="0.00" timeLoss="155.01" rerouteNo="0" devices="tripinfo_medium_core_veh_000003" vType="car" speedFactor="1.01" vaporized=""/>
    <tripinfo id="medium_core_veh_000030" depart="82.00" departLane="E10_1" departPos="5.10" departSpeed="4.80" departDelay="2.00" arrival="201.00" arrivalLane="E4_1" arrivalPos="136.40" arrivalSpeed="12.68" duration="119.00" routeLength="613.81" waitingTime="46.00" waitingCount="2" stopTime="0.00" timeLoss="70.56" rerouteNo="0" devices="tripinfo_medium_core_veh_000030" vType="car" speedFactor="0.93" vaporized=""/>
    <tripinfo id="medium_core_veh_000042" depart="82.00" departLane="-E5_1" departPos="5.10" departSpeed="6.53" departDelay="2.00" arrival="202.00" arrivalLane="E19_1" arrivalPos="136.40" arrivalSpeed="13.23" duration="120.00" routeLength="506.61" waitingTime="61.00" waitingCount="3" stopTime="0.00" timeLoss="81.12" rerouteNo="0" devices="tripinfo_medium_core_veh_000042" vType="car" speedFactor="0.96" vaporized=""/>
    <tripinfo id="medium_core_veh_000032" depart="80.00" departLane="E14_2" departPos="5.10" departSpeed="13.89" departDelay="0.00" arrival="204.00" arrivalLane="E5_1" arrivalPos="136.40" arrivalSpeed="13.09" duration="124.00" routeLength="399.41" waitingTime="82.00" waitingCount="2" stopTime="0.00" timeLoss="94.25" rerouteNo="0" devices="tripinfo_medium_core_veh_000032" vType="car" speedFactor="1.15" vaporized=""/>
    <tripinfo id="medium_core_veh_000038" depart="82.00" departLane="-E2_0" departPos="5.10" departSpeed="6.83" departDelay="2.00" arrival="204.00" arrivalLane="E19_1" arrivalPos="136.40" arrivalSpeed="13.21" duration="122.00" routeLength="488.44" waitingTime="63.00" waitingCount="3" stopTime="0.00" timeLoss="85.95" rerouteNo="0" devices="tripinfo_medium_core_veh_000038" vType="car" speedFactor="1.18" vaporized=""/>
    <tripinfo id="medium_core_veh_000028" depart="80.00" departLane="E10_2" departPos="5.10" departSpeed="13.18" departDelay="0.00" arrival="206.00" arrivalLane="E5_1" arrivalPos="136.40" arrivalSpeed="12.59" duration="126.00" routeLength="506.61" waitingTime="70.00" waitingCount="3" stopTime="0.00" timeLoss="86.54" rerouteNo="0" devices="tripinfo_medium_core_veh_000028" vType="car" speedFactor="0.95" vaporized=""/>
    <tripinfo id="medium_core_veh_000054" depart="160.00" departLane="E14_1" departPos="5.10" departSpeed="13.89" departDelay="0.00" arrival="207.00" arrivalLane="E19_1" arrivalPos="136.40" arrivalSpeed="12.91" duration="47.00" routeLength="402.10" waitingTime="12.00" waitingCount="1" stopTime="0.00" timeLoss="17.59" rerouteNo="0" devices="tripinfo_medium_core_veh_000054" vType="car" speedFactor="1.10" vaporized=""/>
    <tripinfo id="medium_core_veh_000023" depart="81.00" departLane="E9_1" departPos="5.10" departSpeed="10.53" departDelay="1.00" arrival="208.00" arrivalLane="E5_1" arrivalPos="136.40" arrivalSpeed="12.92" duration="127.00" routeLength="509.30" waitingTime="73.00" waitingCount="2" stopTime="0.00" timeLoss="88.87" rerouteNo="0" devices="tripinfo_medium_core_veh_000023" vType="car" speedFactor="0.97" vaporized=""/>
    <tripinfo id="medium_core_veh_000061" depart="160.00" departLane="-E5_2" departPos="5.10" departSpeed="13.89" departDelay="0.00" arrival="240.00" arrivalLane="E3_1" arrivalPos="136.40" arrivalSpeed="12.70" duration="80.00" routeLength="399.41" waitingTime="41.00" waitingCount="1" stopTime="0.00" timeLoss="50.26" rerouteNo="0" devices="tripinfo_medium_core_veh_000061" vType="car" speedFactor="1.08" vaporized=""/>
    <tripinfo id="medium_core_veh_000060" depart="160.00" departLane="-E5_1" departPos="5.10" departSpeed="13.47" departDelay="0.00" arrival="243.00" arrivalLane="-E14_0" arrivalPos="136.40" arrivalSpeed="12.25" duration="83.00" routeLength="383.93" waitingTime="41.00" waitingCount="2" stopTime="0.00" timeLoss="53.43" rerouteNo="0" devices="tripinfo_medium_core_veh_000060" vType="car" speedFactor="0.97" vaporized=""/>
    <tripinfo id="medium_core_veh_000052" depart="160.00" departLane="E14_0" departPos="5.10" departSpeed="13.89" departDelay="0.00" arrival="244.00" arrivalLane="-E9_1" arrivalPos="136.40" arrivalSpeed="13.13" duration="84.00" routeLength="383.93" waitingTime="43.00" waitingCount="2" stopTime="0.00" timeLoss="55.09" rerouteNo="0" devices="tripinfo_medium_core_veh_000052" vType="car" speedFactor="1.17" vaporized=""/>
    <tripinfo id="medium_core_veh_000048" depart="160.00" departLane="E10_1" departPos="5.10" departSpeed="12.51" departDelay="0.00" arrival="246.00" arrivalLane="E19_0" arrivalPos="136.40" arrivalSpeed="11.32" duration="86.00" routeLength="488.44" waitingTime="35.00" waitingCount="2" stopTime="0.00" timeLoss="45.70" rerouteNo="0" devices="tripinfo_medium_core_veh_000048" vType="car" speedFactor="0.90" vaporized=""/>
    <tripinfo id="medium_core_veh_000022" depart="80.00" departLane="E9_1" departPos="5.10" departSpeed="13.89" departDelay="0.00" arrival="247.00" arrivalLane="E5_0" arrivalPos="136.40" arrivalSpeed="13.15" duration="167.00" routeLength="681.98" waitingTime="97.00" waitingCount="2" stopTime="0.00" timeLoss="115.09" rerouteNo="0" devices="tripinfo_medium_core_veh_000022" vType="car" speedFactor="1.01" vaporized=""/>
    <tripinfo id="medium_core_veh_000056" depart="160.00" departLane="-E2_0" departPos="5.10" departSpeed="13.83" departDelay="0.00" arrival="257.00" arrivalLane="-E14_0" arrivalPos="136.40" arrivalSpeed="13.25" duration="97.00" routeLength="365.76" waitingTime="61.00" waitingCount="1" stopTime="0.00" timeLoss="69.19" rerouteNo="0" devices="tripinfo_medium_core_veh_000056" vType="car" speedFactor="1.00" vaporized=""/>
    <tripinfo id="medium_core_veh_000047" depart="161.00" departLane="E9_0" departPos="5.10" departSpeed="10.10" departDelay="1.00" arrival="263.00" arrivalLane="-E18_1" arrivalPos="136.40" arrivalSpeed="13.38" duration="102.00" routeLength="383.93" waitingTime="60.00" waitingCount="2" stopTime="0.00" timeLoss="72.52" rerouteNo="0" devices="tripinfo_medium_core_veh_000047" vType="car" speedFactor="1.00" vaporized=""/>
    <tripinfo id="medium_core_veh_000050" depart="161.00" departLane="E10_1" departPos="5.10" departSpeed="9.66" departDelay="1.00" arrival="263.00" arrivalLane="-E17_0" arrivalPos="136.40" arrivalSpeed="10.58" duration="102.00" routeLength="383.93" waitingTime="57.00" waitingCount="2" stopTime="0.00" timeLoss="68.59" rerouteNo="0" devices="tripinfo_medium_core_veh_000050" vType="car" speedFactor="0.85" vaporized=""/>
    <tripinfo id="medium_core_veh_000034" depart="81.00" departLane="E14_2" departPos="5.10" departSpeed="10.43" departDelay="1.00" arrival="269.00" arrivalLane="E4_2" arrivalPos="136.40" arrivalSpeed="13.81" duration="188.00" routeLength="485.75" waitingTime="130.00" waitingCount="3" stopTime="0.00" timeLoss="151.29" rerouteNo="0" devices="tripinfo_medium_core_veh_000034" vType="car" speedFactor="1.17" vaporized=""/>
    <tripinfo id="medium_core_veh_000046" depart="162.00" departLane="E9_1" departPos="5.10" departSpeed="5.45" departDelay="2.00" arrival="271.00" arrivalLane="-E14_2" arrivalPos="136.40" arrivalSpeed="13.41" duration="109.00" routeLength="399.41" waitingTime="65.00" waitingCount="2" stopTime="0.00" timeLoss="79.36" rerouteNo="0" devices="tripinfo_medium_core_veh_000046" vType="car" speedFactor="1.09" vaporized=""/>
    <tripinfo id="medium_core_veh_000057" depart="160.00" departLane="-E2_1" departPos="5.10" departSpeed="12.49" departDelay="0.00" arrival="273.00" arrivalLane="E4_2" arrivalPos="136.40" arrivalSpeed="11.92" duration="113.00" routeLength="399.41" waitingTime="67.00" waitingCount="2" stopTime="0.00" timeLoss="79.53" rerouteNo="0" devices="tripinfo_medium_core_veh_000057" vType="car" speedFactor="0.90" vaporized=""/>
    <tripinfo id="medium_core_veh_000078" depart="240.00" departLane="-E2_1" departPos="5.10" departSpeed="13.64" departDelay="0.00" arrival="274.00" arrivalLane="E4_2" arrivalPos="136.40" arrivalSpeed="12.61" duration="34.00" routeLength="399.41" waitingTime="0.00" waitingCount="0" stopTime="0.00" timeLoss="4.03" rerouteNo="0" devices="tripinfo_medium_core_veh_000078" vType="car" speedFactor="0.98" vaporized=""/>
    <tripinfo id="medium_core_veh_000062" depart="161.00" departLane="-E5_1" departPos="5.10" departSpeed="10.81" departDelay="1.00" arrival="278.00" arrivalLane="-E18_1" arrivalPos="136.40" arrivalSpeed="13.57" duration="117.00" routeLength="613.81" waitingTime="54.00" waitingCount="3" stopTime="0.00" timeLoss="72.42" rerouteNo="0" devices="tripinfo_medium_core_veh_000062" vType="car" speedFactor="1.12" vaporized=""/>
    <tripinfo id="medium_core_veh_000058" depart="161.00" departLane="-E2_0" departPos="5.10" departSpeed="10.17" departDelay="1.00" arrival="281.00" arrivalLane="-E17_0" arrivalPos="136.40" arrivalSpeed="13.07" duration="120.00" routeLength="577.47" waitingTime="62.00" waitingCount="2" stopTime="0.00" timeLoss="76.58" rerouteNo="0" devices="tripinfo_medium_core_veh_000058" vType="car" speedFactor="1.14" vaporized=""/>
    <tripinfo id="medium_core_veh_000024" depart="80.00" departLane="E9_0" departPos="5.10" departSpeed="12.36" departDelay="0.00" arrival="289.00" arrivalLane="E4_1" arrivalPos="136.40" arrivalSpeed="11.57" duration="209.00" routeLength="595.64" waitingTime="136.00" waitingCount="4" stopTime="0.00" timeLoss="158.60" rerouteNo="0" devices="tripinfo_medium_core_veh_000024" vType="car" speedFactor="0.89" vaporized=""/>
    <tripinfo id="medium_core_veh_000051" depart="162.00" departLane="E10_1" departPos="5.10" departSpeed="6.11" departDelay="2.00" arrival="291.00" arrivalLane="E4_1" arrivalPos="136.40" arrivalSpeed="11.33" duration="129.00" routeLength="613.81" waitingTime="54.00" waitingCount="3" stopTime="0.00" timeLoss="76.08" rerouteNo="0" devices="tripinfo_medium_core_veh_000051" vType="car" speedFactor="0.85" vaporized=""/>
    <tripinfo id="medium_core_veh_000063" depart="162.00" departLane="-E5_1" departPos="5.10" departSpeed="6.94" departDelay="2.00" arrival="292.00" arrivalLane="E19_1" arrivalPos="136.40" arrivalSpeed="13.73" duration="130.00" routeLength="506.61" waitingTime="70.00" waitingCount="3" stopTime="0.00" timeLoss="92.77" rerouteNo="0" devices="tripinfo_medium_core_veh_000063" vType="car" speedFactor="1.02" vaporized=""/>
    <tripinfo id="medium_core_veh_000053" depart="160.00" departLane="E14_2" departPos="5.10" departSpeed="13.89" departDelay="0.00" arrival="294.00" arrivalLane="E5_1" arrivalPos="136.40" arrivalSpeed="12.78" duration="134.00" routeLength="399.41" waitingTime="90.00" waitingCount="2" stopTime="0.00" timeLoss="104.46" rerouteNo="0" devices="tripinfo_medium_core_veh_000053" vType="car" speedFactor="1.02" vaporized=""/>
    <tripinfo id="medium_core_veh_000059" depart="162.00" departLane="-E2_0" departPos="5.10" departSpeed="5.19" departDelay="2.00" arrival="294.00" arrivalLane="E19_1" arrivalPos="136.40" arrivalSpeed="12.96" duration="132.00" routeLength="488.44" waitingTime="73.00" waitingCount="3" stopTime="0.00" timeLoss="95.34" rerouteNo="0" devices="tripinfo_medium_core_veh_000059" vType="car" speedFactor="1.02" vaporized=""/>
    <tripinfo id="medium_core_veh_000080" depart="242.00" departLane="-E2_0" departPos="5.10" departSpeed="7.33" departDelay="2.00" arrival="296.00" arrivalLane="E19_1" arrivalPos="136.40" arrivalSpeed="13.16" duration="54.00" routeLength="488.44" waitingTime="3.00" waitingCount="1" stopTime="0.00" timeLoss="17.38" rerouteNo="0" devices="tripinfo_medium_core_veh_000080" vType="car" speedFactor="1.09" vaporized=""/>
    <tripinfo id="medium_core_veh_000049" depart="160.00" departLane="E10_2" departPos="5.10" departSpeed="12.18" departDelay="0.00" arrival="297.00" arrivalLane="E5_1" arrivalPos="136.40" arrivalSpeed="10.91" duration="137.00" routeLength="506.61" waitingTime="77.00" waitingCount="3" stopTime="0.00" timeLoss="94.78" rerouteNo="0" devices="tripinfo_medium_core_veh_000049" vType="car" speedFactor="0.88" vaporized=""/>
    <tripinfo id="medium_core_veh_000075" depart="240.00" departLane="E14_1" departPos="5.10" departSpeed="13.27" departDelay="0.00" arrival="298.00" arrivalLane="E19_1" arrivalPos="136.40" arrivalSpeed="12.31" duration="58.00" routeLength="402.10" waitingTime="20.00" waitingCount="1" stopTime="0.00" timeLoss="27.69" rerouteNo="0" devices="tripinfo_medium_core_veh_000075" vType="car" speedFactor="0.96" vaporized=""/>
    <tripinfo id="medium_core_veh_000044" depart="161.00" departLane="E9_1" departPos="5.10" departSpeed="10.30" departDelay="1.00" arrival="299.00" arrivalLane="E5_1" arrivalPos="136.40" arrivalSpeed="12.79" duration="138.00" routeLength="509.30" waitingTime="85.00" waitingCount="2" stopTime="0.00" timeLoss="100.98" rerouteNo="0" devices="tripinfo_medium_core_veh_000044" vType="car" speedFactor="1.04" vaporized=""/>
    <tripinfo id="medium_core_veh_000082" depart="240.00" departLane="-E5_2" departPos="5.10" departSpeed="13.86" departDelay="0.00" arrival="330.00" arrivalLane="E3_1" arrivalPos="136.40" arrivalSpeed="13.05" duration="90.00" routeLength="399.41" waitingTime="53.00" waitingCount="1" stopTime="0.00" timeLoss="59.84" rerouteNo="0" devices="tripinfo_medium_core_veh_000082" vType="car" speedFactor="1.00" vaporized=""/>
    <tripinfo id="medium_core_veh_000077" depart="240.00" departLane="-E2_0" departPos="5.10" departSpeed="13.89" departDelay="0.00" arrival="333.00" arrivalLane="-E14_0" arrivalPos="136.40" arrivalSpeed="12.83" duration="93.00" routeLength="365.76" waitingTime="57.00" waitingCount="1" stopTime="0.00" timeLoss="65.17" rerouteNo="0" devices="tripinfo_medium_core_veh_000077" vType="car" speedFactor="1.03" vaporized=""/>
    <tripinfo id="medium_core_veh_000073" depart="240.00" departLane="E14_0" departPos="5.10" departSpeed="13.06" departDelay="0.00" arrival="335.00" arrivalLane="-E9_1" arrivalPos="136.40" arrivalSpeed="12.71" duration="95.00" routeLength="383.93" waitingTime="53.00" waitingCount="2" stopTime="0.00" timeLoss="64.74" rerouteNo="0" devices="tripinfo_medium_core_veh_000073" vType="car" speedFactor="0.94" vaporized=""/>
    <tripinfo id="medium_core_veh_000081" depart="240.00" departLane="-E5_1" departPos="5.10" departSpeed="13.89" departDelay="0.00" arrival="335.00" arrivalLane="-E14_0" arrivalPos="136.40" arrivalSpeed="13.46" duration="95.00" routeLength="383.93" waitingTime="54.00" waitingCount="2" stopTime="0.00" timeLoss="66.71" rerouteNo="0" devices="tripinfo_medium_core_veh_000081" vType="car" speedFactor="1.03" vaporized=""/>
    <tripinfo id="medium_core_veh_000043" depart="160.00" departLane="E9_1" departPos="5.10" departSpeed="13.89" departDelay="0.00" arrival="336.00" arrivalLane="E5_0" arrivalPos="136.40" arrivalSpeed="13.01" duration="176.00" routeLength="681.98" waitingTime="107.00" waitingCount="2" stopTime="0.00" timeLoss="125.26" rerouteNo="0" devices="tripinfo_medium_core_veh_000043" vType="car" speedFactor="1.09" vaporized=""/>
    <tripinfo id="medium_core_veh_000069" depart="240.00" departLane="E10_1" departPos="5.10" departSpeed="13.89" departDelay="0.00" arrival="336.00" arrivalLane="E19_0" arrivalPos="136.40" arrivalSpeed="13.55" duration="96.00" routeLength="488.44" waitingTime="46.00" waitingCount="2" stopTime="0.00" timeLoss="59.10" rerouteNo="0" devices="tripinfo_medium_core_veh_000069" vType="car" speedFactor="1.04" vaporized=""/>