<?xml version="1.0" encoding="UTF-8"?>

<!-- generated on 2026-07-17 17:25:38 by Eclipse SUMO sumo Version 1.19.0
<configuration xmlns:xsi="http://www.w3.org/2001/XMLSchema-instance" xsi:noNamespaceSchemaLocation="http://sumo.dlr.de/xsd/sumoConfiguration.xsd">

    <input>
        <net-file value="test_random_offsets_seed20260708.net.xml"/>
        <route-files value="north_bottleneck_no_change.rou.xml"/>
    </input>

    <output>
        <tripinfo-output value="tripinfo_north_bottleneck_no_change.xml"/>
    </output>

    <time>
        <begin value="0"/>
    </time>

    <report>
        <duration-log.statistics value="true"/>
        <no-step-log value="true"/>
    </report>

</configuration>
-->

<tripinfos xmlns:xsi="http://www.w3.org/2001/XMLSchema-instance" xsi:noNamespaceSchemaLocation="http://sumo.dlr.de/xsd/tripinfo_file.xsd">
    <tripinfo id="north_bottleneck_veh_000003" depart="0.00" departLane="E14_1" departPos="5.10" departSpeed="13.89" departDelay="0.00" arrival="31.00" arrivalLane="E19_1" arrivalPos="136.40" arrivalSpeed="13.58" duration="31.00" routeLength="402.10" waitingTime="0.00" waitingCount="0" stopTime="0.00" timeLoss="1.51" rerouteNo="0" devices="tripinfo_north_bottleneck_veh_000003" vType="car" speedFactor="1.01" vaporized=""/>
    <tripinfo id="north_bottleneck_veh_000001" depart="0.00" departLane="E14_0" departPos="5.10" departSpeed="13.89" departDelay="0.00" arrival="64.00" arrivalLane="-E9_1" arrivalPos="136.40" arrivalSpeed="12.75" duration="64.00" routeLength="383.93" waitingTime="28.00" waitingCount="1" stopTime="0.00" timeLoss="35.34" rerouteNo="0" devices="tripinfo_north_bottleneck_veh_000001" vType="car" speedFactor="1.06" vaporized=""/>
    <tripinfo id="north_bottleneck_veh_000005" depart="0.00" departLane="-E2_0" departPos="5.10" departSpeed="13.89" departDelay="0.00" arrival="77.00" arrivalLane="-E14_0" arrivalPos="136.40" arrivalSpeed="13.42" duration="77.00" routeLength="365.76" waitingTime="40.00" waitingCount="1" stopTime="0.00" timeLoss="49.06" rerouteNo="0" devices="tripinfo_north_bottleneck_veh_000005" vType="car" speedFactor="1.03" vaporized=""/>
    <tripinfo id="north_bottleneck_veh_000013" depart="30.00" departLane="-E2_0" departPos="5.10" departSpeed="13.89" departDelay="0.00" arrival="84.00" arrivalLane="-E14_0" arrivalPos="136.40" arrivalSpeed="13.39" duration="54.00" routeLength="365.76" waitingTime="15.00" waitingCount="1" stopTime="0.00" timeLoss="26.78" rerouteNo="0" devices="tripinfo_north_bottleneck_veh_000013" vType="car" speedFactor="1.05" vaporized=""/>
    <tripinfo id="north_bottleneck_veh_000006" depart="0.00" departLane="-E2_1" departPos="5.10" departSpeed="11.54" departDelay="0.00" arrival="91.00" arrivalLane="E4_2" arrivalPos="136.40" arrivalSpeed="11.04" duration="91.00" routeLength="399.41" waitingTime="45.00" waitingCount="2" stopTime="0.00" timeLoss="55.34" rerouteNo="0" devices="tripinfo_north_bottleneck_veh_000006" vType="car" speedFactor="0.83" vaporized=""/>
    <tripinfo id="north_bottleneck_veh_000014" depart="30.00" departLane="-E2_1" departPos="5.10" departSpeed="13.89" departDelay="0.00" arrival="93.00" arrivalLane="E4_2" arrivalPos="136.40" arrivalSpeed="12.94" duration="63.00" routeLength="399.41" waitingTime="15.00" waitingCount="2" stopTime="0.00" timeLoss="33.27" rerouteNo="0" devices="tripinfo_north_bottleneck_veh_000014" vType="car" speedFactor="1.12" vaporized=""/>
    <tripinfo id="north_bottleneck_veh_000022" depart="60.00" departLane="-E2_1" departPos="5.10" departSpeed="13.89" departDelay="0.00" arrival="94.00" arrivalLane="E4_2" arrivalPos="136.40" arrivalSpeed="13.76" duration="34.00" routeLength="399.41" waitingTime="0.00" waitingCount="0" stopTime="0.00" timeLoss="4.79" rerouteNo="0" devices="tripinfo_north_bottleneck_veh_000022" vType="car" speedFactor="1.01" vaporized=""/>
    <tripinfo id="north_bottleneck_veh_000007" depart="1.00" departLane="-E2_0" departPos="5.10" departSpeed="10.34" departDelay="1.00" arrival="98.00" arrivalLane="-E17_0" arrivalPos="136.40" arrivalSpeed="13.03" duration="97.00" routeLength="577.47" waitingTime="40.00" waitingCount="1" stopTime="0.00" timeLoss="53.48" rerouteNo="0" devices="tripinfo_north_bottleneck_veh_000007" vType="car" speedFactor="1.05" vaporized=""/>
    <tripinfo id="north_bottleneck_veh_000008" depart="2.00" departLane="-E2_0" departPos="5.10" departSpeed="6.16" departDelay="2.00" arrival="113.00" arrivalLane="E19_1" arrivalPos="136.40" arrivalSpeed="11.39" duration="111.00" routeLength="488.44" waitingTime="49.00" waitingCount="3" stopTime="0.00" timeLoss="69.39" rerouteNo="0" devices="tripinfo_north_bottleneck_veh_000008" vType="car" speedFactor="0.89" vaporized=""/>
    <tripinfo id="north_bottleneck_veh_000002" depart="0.00" departLane="E14_2" departPos="5.10" departSpeed="13.03" departDelay="0.00" arrival="114.00" arrivalLane="E5_1" arrivalPos="136.40" arrivalSpeed="12.92" duration="114.00" routeLength="399.41" waitingTime="70.00" waitingCount="2" stopTime="0.00" timeLoss="82.12" rerouteNo="0" devices="tripinfo_north_bottleneck_veh_000002" vType="car" speedFactor="0.94" vaporized=""/>
    <tripinfo id="north_bottleneck_veh_000016" depart="32.00" departLane="-E2_0" departPos="5.10" departSpeed="7.15" departDelay="2.00" arrival="115.00" arrivalLane="E19_1" arrivalPos="136.40" arrivalSpeed="12.60" duration="83.00" routeLength="488.44" waitingTime="18.00" waitingCount="2" stopTime="0.00" timeLoss="42.84" rerouteNo="0" devices="tripinfo_north_bottleneck_veh_000016" vType="car" speedFactor="0.93" vaporized=""/>
    <tripinfo id="north_bottleneck_veh_000010" depart="30.00" departLane="E14_2" departPos="5.10" departSpeed="11.90" departDelay="0.00" arrival="117.00" arrivalLane="E5_1" arrivalPos="136.40" arrivalSpeed="11.61" duration="87.00" routeLength="399.41" waitingTime="46.00" waitingCount="1" stopTime="0.00" timeLoss="52.57" rerouteNo="0" devices="tripinfo_north_bottleneck_veh_000010" vType="car" speedFactor="0.86" vaporized=""/>
    <tripinfo id="north_bottleneck_veh_000024" depart="62.00" departLane="-E2_0" departPos="5.10" departSpeed="8.38" departDelay="2.00" arrival="117.00" arrivalLane="E19_1" arrivalPos="136.40" arrivalSpeed="12.13" duration="55.00" routeLength="488.44" waitingTime="3.00" waitingCount="1" stopTime="0.00" timeLoss="13.79" rerouteNo="0" devices="tripinfo_north_bottleneck_veh_000024" vType="car" speedFactor="0.89" vaporized=""/>
    <tripinfo id="north_bottleneck_veh_000011" depart="30.00" departLane="E14_1" departPos="5.10" departSpeed="13.89" departDelay="0.00" arrival="119.00" arrivalLane="E19_1" arrivalPos="136.40" arrivalSpeed="13.65" duration="89.00" routeLength="402.10" waitingTime="50.00" waitingCount="1" stopTime="0.00" timeLoss="59.47" rerouteNo="0" devices="tripinfo_north_bottleneck_veh_000011" vType="car" speedFactor="1.09" vaporized=""/>
    <tripinfo id="north_bottleneck_veh_000019" depart="60.00" departLane="E14_1" departPos="5.10" departSpeed="13.00" departDelay="0.00" arrival="121.00" arrivalLane="E19_1" arrivalPos="136.40" arrivalSpeed="12.03" duration="61.00" routeLength="402.10" waitingTime="22.00" waitingCount="1" stopTime="0.00" timeLoss="29.55" rerouteNo="0" devices="tripinfo_north_bottleneck_veh_000019" vType="car" speedFactor="0.94" vaporized=""/>
    <tripinfo id="north_bottleneck_veh_000027" depart="90.00" departLane="E14_1" departPos="5.10" departSpeed="12.74" departDelay="0.00" arrival="124.00" arrivalLane="E19_1" arrivalPos="136.40" arrivalSpeed="11.46" duration="34.00" routeLength="402.10" waitingTime="0.00" waitingCount="0" stopTime="0.00" timeLoss="1.84" rerouteNo="0" devices="tripinfo_north_bottleneck_veh_000027" vType="car" speedFactor="0.92" vaporized=""/>
    <tripinfo id="north_bottleneck_veh_000021" depart="60.00" departLane="-E2_0" departPos="5.10" departSpeed="13.89" departDelay="0.00" arrival="152.00" arrivalLane="-E14_0" arrivalPos="136.40" arrivalSpeed="13.74" duration="92.00" routeLength="365.76" waitingTime="55.00" waitingCount="1" stopTime="0.00" timeLoss="63.93" rerouteNo="0" devices="tripinfo_north_bottleneck_veh_000021" vType="car" speedFactor="1.02" vaporized=""/>
    <tripinfo id="north_bottleneck_veh_000009" depart="30.00" departLane="E14_0" departPos="5.10" departSpeed="13.03" departDelay="0.00" arrival="155.00" arrivalLane="-E9_1" arrivalPos="136.40" arrivalSpeed="12.52" duration="125.00" routeLength="383.93" waitingTime="82.00" waitingCount="2" stopTime="0.00" timeLoss="94.44" rerouteNo="0" devices="tripinfo_north_bottleneck_veh_000009" vType="car" speedFactor="0.94" vaporized=""/>
    <tripinfo id="north_bottleneck_veh_000017" depart="60.00" departLane="E14_0" departPos="5.10" departSpeed="12.20" departDelay="0.00" arrival="157.00" arrivalLane="-E9_1" arrivalPos="136.40" arrivalSpeed="11.94" duration="97.00" routeLength="383.93" waitingTime="54.00" waitingCount="2" stopTime="0.00" timeLoss="65.08" rerouteNo="0" devices="tripinfo_north_bottleneck_veh_000017" vType="car" speedFactor="0.88" vaporized=""/>
    <tripinfo id="north_bottleneck_veh_000025" depart="90.00" departLane="E14_0" departPos="5.10" departSpeed="11.47" departDelay="0.00" arrival="160.00" arrivalLane="-E9_1" arrivalPos="136.40" arrivalSpeed="11.37" duration="70.00" routeLength="383.93" waitingTime="27.00" waitingCount="1" stopTime="0.00" timeLoss="35.28" rerouteNo="0" devices="tripinfo_north_bottleneck_veh_000025" vType="car" speedFactor="0.83" vaporized=""/>
    <tripinfo id="north_bottleneck_veh_000029" depart="90.00" departLane="-E2_0" departPos="5.10" departSpeed="13.89" departDelay="0.00" arrival="167.00" arrivalLane="-E14_0" arrivalPos="136.40" arrivalSpeed="13.40" duration="77.00" routeLength="365.76" waitingTime="41.00" waitingCount="1" stopTime="0.00" timeLoss="49.00" rerouteNo="0" devices="tripinfo_north_bottleneck_veh_000029" vType="car" speedFactor="1.13" vaporized=""/>
    <tripinfo id="north_bottleneck_veh_000037" depart="120.00" departLane="-E2_0" departPos="5.10" departSpeed="13.52" departDelay="0.00" arrival="174.00" arrivalLane="-E14_0" arrivalPos="136.40" arrivalSpeed="13.30" duration="54.00" routeLength="365.76" waitingTime="15.00" waitingCount="1" stopTime="0.00" timeLoss="25.88" rerouteNo="0" devices="tripinfo_north_bottleneck_veh_000037" vType="car" speedFactor="0.97" vaporized=""/>
    <tripinfo id="north_bottleneck_veh_000004" depart="1.00" departLane="E14_2" departPos="5.10" departSpeed="9.45" departDelay="1.00" arrival="179.00" arrivalLane="E4_2" arrivalPos="136.40" arrivalSpeed="13.32" duration="178.00" routeLength="485.75" waitingTime="120.00" waitingCount="3" stopTime="0.00" timeLoss="141.16" rerouteNo="0" devices="tripinfo_north_bottleneck_veh_000004" vType="car" speedFactor="1.08" vaporized=""/>
    <tripinfo id="north_bottleneck_veh_000012" depart="31.00" departLane="E14_2" departPos="5.10" departSpeed="9.33" departDelay="1.00" arrival="182.00" arrivalLane="E4_2" arrivalPos="136.40" arrivalSpeed="13.28" duration="151.00" routeLength="485.75" waitingTime="96.00" waitingCount="2" stopTime="0.00" timeLoss="113.32" rerouteNo="0" devices="tripinfo_north_bottleneck_veh_000012" vType="car" speedFactor="1.03" vaporized=""/>
    <tripinfo id="north_bottleneck_veh_000030" depart="90.00" departLane="-E2_1" departPos="5.10" departSpeed="12.94" departDelay="0.00" arrival="184.00" arrivalLane="E4_2" arrivalPos="136.40" arrivalSpeed="12.33" duration="94.00" routeLength="399.41" waitingTime="50.00" waitingCount="2" stopTime="0.00" timeLoss="62.31" rerouteNo="0" devices="tripinfo_north_bottleneck_veh_000030" vType="car" speedFactor="0.93" vaporized=""/>
    <tripinfo id="north_bottleneck_veh_000038" depart="120.00" departLane="-E2_1" departPos="5.10" departSpeed="13.89" departDelay="0.00" arrival="186.00" arrivalLane="E4_2" arrivalPos="136.40" arrivalSpeed="13.18" duration="66.00" routeLength="399.41" waitingTime="21.00" waitingCount="2" stopTime="0.00" timeLoss="36.51" rerouteNo="0" devices="tripinfo_north_bottleneck_veh_000038" vType="car" speedFactor="1.18" vaporized=""/>
    <tripinfo id="north_bottleneck_veh_000046" depart="150.00" departLane="-E2_1" departPos="5.10" departSpeed="13.89" departDelay="0.00" arrival="188.00" arrivalLane="E4_2" arrivalPos="136.40" arrivalSpeed="13.38" duration="38.00" routeLength="399.41" waitingTime="0.00" waitingCount="0" stopTime="0.00" timeLoss="7.95" rerouteNo="0" devices="tripinfo_north_bottleneck_veh_000046" vType="car" speedFactor="1.09" vaporized=""/>
    <tripinfo id="north_bottleneck_veh_000015" depart="31.00" departLane="-E2_0" departPos="5.10" departSpeed="10.49" departDelay="1.00" arrival="190.00" arrivalLane="-E17_0" arrivalPos="136.40" arrivalSpeed="13.60" duration="159.00" routeLength="577.47" waitingTime="89.00" waitingCount="3" stopTime="0.00" timeLoss="114.54" rerouteNo="0" devices="tripinfo_north_bottleneck_veh_000015" vType="car" speedFactor="0.99" vaporized=""/>
    <tripinfo id="north_bottleneck_veh_000023" depart="61.00" departLane="-E2_0" departPos="5.10" departSpeed="11.45" departDelay="1.00" arrival="193.00" arrivalLane="-E17_0" arrivalPos="136.40" arrivalSpeed="13.27" duration="132.00" routeLength="577.47" waitingTime="69.00" waitingCount="2" stopTime="0.00" timeLoss="87.19" rerouteNo="0" devices="tripinfo_north_bottleneck_veh_000023" vType="car" speedFactor="0.97" vaporized=""/>
    <tripinfo id="north_bottleneck_veh_000032" depart="92.00" departLane="-E2_0" departPos="5.10" departSpeed="7.36" departDelay="2.00" arrival="201.00" arrivalLane="E19_1" arrivalPos="136.40" arrivalSpeed="12.97" duration="109.00" routeLength="488.44" waitingTime="52.00" waitingCount="3" stopTime="0.00" timeLoss="72.85" rerouteNo="0" devices="tripinfo_north_bottleneck_veh_000032" vType="car" speedFactor="1.15" vaporized=""/>
    <tripinfo id="north_bottleneck_veh_000040" depart="122.00" departLane="-E2_0" departPos="5.10" departSpeed="5.88" departDelay="2.00" arrival="204.00" arrivalLane="E19_1" arrivalPos="136.40" arrivalSpeed="12.47" duration="82.00" routeLength="488.44" waitingTime="20.00" waitingCount="2" stopTime="0.00" timeLoss="41.48" rerouteNo="0" devices="tripinfo_north_bottleneck_veh_000040" vType="car" speedFactor="0.90" vaporized=""/>
    <tripinfo id="north_bottleneck_veh_000018" depart="60.00" departLane="E14_2" departPos="5.10" departSpeed="13.08" departDelay="0.00" arrival="205.00" arrivalLane="E5_1" arrivalPos="136.40" arrivalSpeed="13.01" duration="145.00" routeLength="399.41" waitingTime="101.00" waitingCount="2" stopTime="0.00" timeLoss="113.20" rerouteNo="0" devices="tripinfo_north_bottleneck_veh_000018" vType="car" speedFactor="0.94" vaporized=""/>
    <tripinfo id="north_bottleneck_veh_000026" depart="90.00" departLane="E14_2" departPos="5.10" departSpeed="12.12" departDelay="0.00" arrival="207.00" arrivalLane="E5_1" arrivalPos="136.40" arrivalSpeed="11.63" duration="117.00" routeLength="399.41" waitingTime="71.00" waitingCount="2" stopTime="0.00" timeLoss="83.02" rerouteNo="0" devices="tripinfo_north_bottleneck_veh_000026" vType="car" speedFactor="0.87" vaporized=""/>
    <tripinfo id="north_bottleneck_veh_000048" depart="152.00" departLane="-E2_0" departPos="5.10" departSpeed="7.41" departDelay="2.00" arrival="207.00" arrivalLane="E19_1" arrivalPos="136.40" arrivalSpeed="11.98" duration="55.00" routeLength="488.44" waitingTime="1.00" waitingCount="1" stopTime="0.00" timeLoss="13.95" rerouteNo="0" devices="tripinfo_north_bottleneck_veh_000048" vType="car" speedFactor="0.90" vaporized=""/>
    <tripinfo id="north_bottleneck_veh_000035" depart="120.00" departLane="E14_1" departPos="5.10" departSpeed="13.82" departDelay="0.00" arrival="208.00" arrivalLane="E19_1" arrivalPos="136.40" arrivalSpeed="12.52" duration="88.00" routeLength="402.10" waitingTime="49.00" waitingCount="1" stopTime="0.00" timeLoss="58.71" rerouteNo="0" devices="tripinfo_north_bottleneck_veh_000035" vType="car" speedFactor="0.99" vaporized=""/>
    <tripinfo id="north_bottleneck_veh_000034" depart="120.00" departLane="E14_2" departPos="5.10" departSpeed="13.89" departDelay="0.00" arrival="209.00" arrivalLane="E5_1" arrivalPos="136.40" arrivalSpeed="13.06" duration="89.00" routeLength="399.41" waitingTime="50.00" waitingCount="1" stopTime="0.00" timeLoss="59.38" rerouteNo="0" devices="tripinfo_north_bottleneck_veh_000034" vType="car" speedFactor="1.17" vaporized=""/>
    <tripinfo id="north_bottleneck_veh_000043" depart="150.00" departLane="E14_1" departPos="5.10" departSpeed="13.89" departDelay="0.00" arrival="210.00" arrivalLane="E19_1" arrivalPos="136.40" arrivalSpeed="13.07" duration="60.00" routeLength="402.10" waitingTime="22.00" waitingCount="1" stopTime="0.00" timeLoss="30.54" rerouteNo="0" devices="tripinfo_north_bottleneck_veh_000043" vType="car" speedFactor="1.09" vaporized=""/>
    <tripinfo id="north_bottleneck_veh_000051" depart="180.00" departLane="E14_1" departPos="5.10" departSpeed="11.87" departDelay="0.00" arrival="216.00" arrivalLane="E19_1" arrivalPos="136.40" arrivalSpeed="11.11" duration="36.00" routeLength="402.10" waitingTime="0.00" waitingCount="0" stopTime="0.00" timeLoss="2.07" rerouteNo="0" devices="tripinfo_north_bottleneck_veh_000051" vType="car" speedFactor="0.85" vaporized=""/>
    <tripinfo id="north_bottleneck_veh_000045" depart="150.00" departLane="-E2_0" departPos="5.10" departSpeed="13.89" departDelay="0.00" arrival="243.00" arrivalLane="-E14_0" arrivalPos="136.40" arrivalSpeed="13.20" duration="93.00" routeLength="365.76" waitingTime="56.00" waitingCount="1" stopTime="0.00" timeLoss="64.43" rerouteNo="0" devices="tripinfo_north_bottleneck_veh_000045" vType="car" speedFactor="1.04" vaporized=""/>
    <tripinfo id="north_bottleneck_veh_000033" depart="120.00" departLane="E14_0" departPos="5.10" departSpeed="13.89" departDelay="0.00" arrival="244.00" arrivalLane="-E9_1" arrivalPos="136.40" arrivalSpeed="12.84" duration="124.00" routeLength="383.93" waitingTime="82.00" waitingCount="2" stopTime="0.00" timeLoss="95.32" rerouteNo="0" devices="tripinfo_north_bottleneck_veh_000033" vType="car" speedFactor="1.01" vaporized=""/>
    <tripinfo id="north_bottleneck_veh_000041" depart="150.00" departLane="E14_0" departPos="5.10" departSpeed="13.89" departDelay="0.00" arrival="246.00" arrivalLane="-E9_1" arrivalPos="136.40" arrivalSpeed="12.72" duration="96.00" routeLength="383.93" waitingTime="52.00" waitingCount="2" stopTime="0.00" timeLoss="67.49" rerouteNo="0" devices="tripinfo_north_bottleneck_veh_000041" vType="car" speedFactor="1.03" vaporized=""/>
    <tripinfo id="north_bottleneck_veh_000049" depart="180.00" departLane="E14_0" departPos="5.10" departSpeed="12.18" departDelay="0.00" arrival="249.00" arrivalLane="-E9_1" arrivalPos="136.40" arrivalSpeed="12.02" duration="69.00" routeLength="383.93" waitingTime="27.00" waitingCount="1" stopTime="0.00" timeLoss="36.80" rerouteNo="0" devices="tripinfo_north_bottleneck_veh_000049" vType="car" speedFactor="0.88" vaporized=""/>
    <tripinfo id="north_bottleneck_veh_000053" depart="180.00" departLane="-E2_0" departPos="5.10" departSpeed="13.89" departDelay="0.00" arrival="256.00" arrivalLane="-E14_0" arrivalPos="136.40" arrivalSpeed="13.31" duration="76.00" routeLength="365.76" waitingTime="39.00" waitingCount="1" stopTime="0.00" timeLoss="48.28" rerouteNo="0" devices="tripinfo_north_bottleneck_veh_000053" vType="car" speedFactor="1.02" vaporized=""/>
    <tripinfo id="north_bottleneck_veh_000031" depart="91.00" departLane="-E2_0" departPos="5.10" departSpeed="11.01" departDelay="1.00" arrival="261.00" arrivalLane="-E17_0" arrivalPos="136.40" arrivalSpeed="13.60" duration="170.00" routeLength="577.47" waitingTime="106.00" waitingCount="3" stopTime="0.00" timeLoss="127.59" rerouteNo="0" devices="tripinfo_north_bottleneck_veh_000031" vType="car" speedFactor="1.18" vaporized=""/>
    <tripinfo id="north_bottleneck_veh_000061" depart="210.00" departLane="-E2_0" departPos="5.10" departSpeed="13.89" departDelay="0.00" arrival="264.00" arrivalLane="-E14_0" arrivalPos="136.40" arrivalSpeed="12.76" duration="54.00" routeLength="365.76" waitingTime="15.00" waitingCount="1" stopTime="0.00" timeLoss="26.12" rerouteNo="0" devices="tripinfo_north_bottleneck_veh_000061" vType="car" speedFactor="1.08" vaporized=""/>
    <tripinfo id="north_bottleneck_veh_000020" depart="61.00" departLane="E14_2" departPos="5.10" departSpeed="10.12" departDelay="1.00" arrival="268.00" arrivalLane="E4_2" arrivalPos="136.40" arrivalSpeed="13.41" duration="207.00" routeLength="485.75" waitingTime="153.00" waitingCount="3" stopTime="0.00" timeLoss="171.14" rerouteNo="0" devices="tripinfo_north_bottleneck_veh_000020" vType="car" speedFactor="1.16" vaporized=""/>
    <tripinfo id="north_bottleneck_veh_000028" depart="91.00" departLane="E14_2" departPos="5.10" departSpeed="8.07" departDelay="1.00" arrival="271.00" arrivalLane="E4_2" arrivalPos="136.40" arrivalSpeed="12.32" duration="180.00" routeLength="485.75" waitingTime="119.00" waitingCount="3" stopTime="0.00" timeLoss="140.61" rerouteNo="0" devices="tripinfo_north_bottleneck_veh_000028" vType="car" speedFactor="0.95" vaporized=""/>
    <tripinfo id="north_bottleneck_veh_000036" depart="121.00" departLane="E14_2" departPos="5.10" departSpeed="10.91" departDelay="1.00" arrival="273.00" arrivalLane="E4_2" arrivalPos="136.40" arrivalSpeed="13.79" duration="152.00" routeLength="485.75" waitingTime="96.00" waitingCount="2" stopTime="0.00" timeLoss="114.70" rerouteNo="0" devices="tripinfo_north_bottleneck_veh_000036" vType="car" speedFactor="1.02" vaporized=""/>
    <tripinfo id="north_bottleneck_veh_000054" depart="180.00" departLane="-E2_1" departPos="5.10" departSpeed="13.89" departDelay="0.00" arrival="275.00" arrivalLane="E4_2" arrivalPos="136.40" arrivalSpeed="13.75" duration="95.00" routeLength="399.41" waitingTime="54.00" waitingCount="2" stopTime="0.00" timeLoss="64.83" rerouteNo="0" devices="tripinfo_north_bottleneck_veh_000054" vType="car" speedFactor="1.10" vaporized=""/>
    <tripinfo id="north_bottleneck_veh_000062" depart="210.00" departLane="-E2_1" departPos="5.10" departSpeed="13.89" departDelay="0.00" arrival="276.00" arrivalLane="E4_2" arrivalPos="136.40" arrivalSpeed="13.29" duration="66.00" routeLength="399.41" waitingTime="22.00" waitingCount="2" stopTime="0.00" timeLoss="36.62" rerouteNo="0" devices="tripinfo_north_bottleneck_veh_000062" vType="car" speedFactor="1.12" vaporized=""/>
    <tripinfo id="north_bottleneck_veh_000070" depart="240.00" departLane="-E2_1" departPos="5.10" departSpeed="13.89" departDelay="0.00" arrival="278.00" arrivalLane="E4_2" arrivalPos="136.40" arrivalSpeed="13.55" duration="38.00" routeLength="399.41" waitingTime="0.00" waitingCount="0" stopTime="0.00" timeLoss="8.45" rerouteNo="0" devices="tripinfo_north_bottleneck_veh_000070" vType="car" speedFactor="1.02" vaporized=""/>
    <tripinfo id="north_bottleneck_veh_000039" depart="121.00" departLane="-E2_0" departPos="5.10" departSpeed="9.85" departDelay="1.00" arrival="280.00" arrivalLane="-E17_0" arrivalPos="136.40" arrivalSpeed="13.63" duration="159.00" routeLength="577.47" waitingTime="90.00" waitingCount="3" stopTime="0.00" timeLoss="115.07" rerouteNo="0" devices="tripinfo_north_bottleneck_veh_000039" vType="car" speedFactor="1.10" vaporized=""/>
    <tripinfo id="north_bottleneck_veh_000047" depart="151.00" departLane="-E2_0" departPos="5.10" departSpeed="11.21" departDelay="1.00" arrival="282.00" arrivalLane="-E17_0" arrivalPos="136.40" arrivalSpeed="13.60" duration="131.00" routeLength="577.47" waitingTime="66.00" waitingCount="2" stopTime="0.00" timeLoss="87.89" rerouteNo="0" devices="tripinfo_north_bottleneck_veh_000047" vType="car" speedFactor="1.00" vaporized=""/>
    <tripinfo id="north_bottleneck_veh_000056" depart="182.00" departLane="-E2_0" departPos="5.10" departSpeed="7.38" departDelay="2.00" arrival="292.00" arrivalLane="E19_1" arrivalPos="136.40" arrivalSpeed="13.18" duration="110.00" routeLength="488.44" waitingTime="51.00" waitingCount="3" stopTime="0.00" timeLoss="72.84" rerouteNo="0" devices="tripinfo_north_bottleneck_veh_000056" vType="car" speedFactor="1.00" vaporized=""/>
    <tripinfo id="north_bottleneck_veh_000064" depart="212.00" departLane="-E2_0" departPos="5.10" departSpeed="7.45" departDelay="2.00" arrival="294.00" arrivalLane="E19_1" arrivalPos="136.40" arrivalSpeed="13.44" duration="82.00" routeLength="488.44" waitingTime="21.00" waitingCount="2" stopTime="0.00" timeLoss="44.12" rerouteNo="0" devices="tripinfo_north_bottleneck_veh_000064" vType="car" speedFactor="0.99" vaporized=""/>
    <tripinfo id="north_bottleneck_veh_000042" depart="150.00" departLane="E14_2" departPos="5.10" departSpeed="13.29" departDelay="0.00" arrival="295.00" arrivalLane="E5_1" arrivalPos="136.40" arrivalSpeed="12.63" duration="145.00" routeLength="399.41" waitingTime="101.00" waitingCount="2" stopTime="0.00" timeLoss="113.72" rerouteNo="0" devices="tripinfo_north_bottleneck_veh_000042" vType="car" speedFactor="0.96" vaporized=""/>
    <tripinfo id="north_bottleneck_veh_000072" depart="242.00" departLane="-E2_0" departPos="5.10" departSpeed="7.49" departDelay="2.00" arrival="296.00" arrivalLane="E19_1" arrivalPos="136.40" arrivalSpeed="12.46" duration="54.00" routeLength="488.44" waitingTime="2.00" waitingCount="1" stopTime="0.00" timeLoss="15.57" rerouteNo="0" devices="tripinfo_north_bottleneck_veh_000072" vType="car" speedFactor="0.97" vaporized=""/>
    <tripinfo id="north_bottleneck_veh_000059" depart="210.00" departLane="E14_1" departPos="5.10" departSpeed="13.89" departDelay="0.00" arrival="297.00" arrivalLane="E19_1" arrivalPos="136.40" arrivalSpeed="13.65" duration="87.00" routeLength="402.10" waitingTime="50.00" waitingCount="1" stopTime="0.00" timeLoss="57.95" rerouteNo="0" devices="tripinfo_north_bottleneck_veh_000059" vType="car" speedFactor="1.02" vaporized=""/>
    <tripinfo id="north_bottleneck_veh_000050" depart="180.00" departLane="E14_2" departPos="5.10" departSpeed="11.81" departDelay="0.00" arrival="298.00" arrivalLane="E5_1" arrivalPos="136.40" arrivalSpeed="10.58" duration="118.00" routeLength="399.41" waitingTime="70.00" waitingCount="2" stopTime="0.00" timeLoss="82.78" rerouteNo="0" devices="tripinfo_north_bottleneck_veh_000050" vType="car" speedFactor="0.85" vaporized=""/>
    <tripinfo id="north_bottleneck_veh_000058" depart="210.00" departLane="E14_2" departPos="5.10" departSpeed="13.89" departDelay="0.00" arrival="299.00" arrivalLane="E5_1" arrivalPos="136.40" arrivalSpeed="13.84" duration="89.00" routeLength="399.41" waitingTime="48.00" waitingCount="1" stopTime="0.00" timeLoss="59.69" rerouteNo="0" devices="tripinfo_north_bottleneck_veh_000058" vType="car" speedFactor="1.14" vaporized=""/>
    <tripinfo id="north_bottleneck_veh_000067" depart="240.00" departLane="E14_1" departPos="5.10" departSpeed="12.60" departDelay="0.00" arrival="301.00" arrivalLane="E19_1" arrivalPos="136.40" arrivalSpeed="12.27" duration="61.00" routeLength="402.10" waitingTime="21.00" waitingCount="1" stopTime="0.00" timeLoss="28.53" rerouteNo="0" devices="tripinfo_north_bottleneck_veh_000067" vType="car" speedFactor="0.91" vaporized=""/>
    <tripinfo id="north_bottleneck_veh_000075" depart="270.00" departLane="E14_1" departPos="5.10" departSpeed="13.27" departDelay="0.00" arrival="303.00" arrivalLane="E19_1" arrivalPos="136.40" arrivalSpeed="13.09" duration="33.00" routeLength="402.10" waitingTime="0.00" waitingCount="0" stopTime="0.00" timeLoss="1.79" rerouteNo="0" devices="tripinfo_north_bottleneck_veh_000075" vType="car" speedFactor="0.96" vaporized=""/>
    <tripinfo id="north_bottleneck_veh_000069" depart="240.00" departLane="-E2_0" departPos="5.10" departSpeed="13.89" departDelay="0.00" arrival="332.00" arrivalLane="-E14_0" arrivalPos="136.40" arrivalSpeed="12.74" duration="92.00" routeLength="365.76" waitingTime="57.00" waitingCount="1" stopTime="0.00" timeLoss="64.66" rerouteNo="0" devices="tripinfo_north_bottleneck_veh_000069" vType="car" speedFactor="1.04" vaporized=""/>
    <tripinfo id="north_bottleneck_veh_000057" depart="210.00" departLane="E14_0" departPos="5.10" departSpeed="12.49" departDelay="0.00" arrival="335.00" arrivalLane="-E9_1" arrivalPos="136.40" arrivalSpeed="12.03" duration="125.00" routeLength="383.93" waitingTime="82.00" waitingCount="2" stopTime="0.00" timeLoss="93.39" rerouteNo="0" devices="tripinfo_north_bottleneck_veh_000057" vType="car" speedFactor="0.90" vaporized=""/>
    <tripinfo id="north_bottleneck_veh_000065" depart="240.00" departLane="E14_0" departPos="5.10" departSpeed="13.02" departDelay="0.00" arrival="337.00" arrivalLane="-E9_1" arrivalPos="136.40" arrivalSpeed="12.42" duration="97.00" routeLength="383.93" waitingTime="51.00" waitingCount="2" stopTime="0.00" timeLoss="65.96" rerouteNo="0" devices="tripinfo_north_bottleneck_veh_000065" vType="car" speedFactor="0.94" vaporized=""/>
    <tripinfo id="north_bottleneck_veh_000073" depart="270.00" departLane="E14_0" departPos="5.10" departSpeed="13.06" departDelay="0.00" arrival="339.00" arrivalLane="-E9_1" arrivalPos="136.40" arrivalSpeed="11.76" duration="69.00" routeLength="383.93" waitingTime="29.00" waitingCount="1" stopTime="0.00" timeLoss="38.41" rerouteNo="0" devices="tripinfo_north_bottleneck_veh_000073" vType="car" speedFactor="0.94" vaporized=""/>
    <tripinfo id="north_bottleneck_veh_000077" depart="270.00" departLane="-E2_0" departPos="5.10" departSpeed="13.89" departDelay="0.00" arrival="346.00" arrivalLane="-E14_0" arrivalPos="136.40" arrivalSpeed="13.85" duration="76.00" routeLength="365.76" waitingTime="41.00" waitingCount="1" stopTime="0.00" timeLoss="48.73" rerouteNo="0" devices="tripinfo_north_bottleneck_veh_000077" vType="car" speedFactor="1.03" vaporized=""/>