<?xml version="1.0" encoding="UTF-8"?>

<!-- generated on 2026-07-17 17:31:20 by Eclipse SUMO sumo Version 1.19.0
<configuration xmlns:xsi="http://www.w3.org/2001/XMLSchema-instance" xsi:noNamespaceSchemaLocation="http://sumo.dlr.de/xsd/sumoConfiguration.xsd">

    <input>
        <net-file value="test_random_offsets_seed20260708.net.xml"/>
        <route-files value="south_bottleneck_no_change.rou.xml"/>
    </input>

    <output>
        <tripinfo-output value="tripinfo_south_bottleneck_no_change.xml"/>
    </output>

    <time>
        <begin value="0"/>
    </time>

    <report>
        <duration-log.statistics value="true"/>
        <no-step-log value="true"/>
    </report>

</configuration>
-->

<tripinfos xmlns:xsi="http://www.w3.org/2001/XMLSchema-instance" xsi:noNamespaceSchemaLocation="http://sumo.dlr.de/xsd/tripinfo_file.xsd">
    <tripinfo id="south_bottleneck_veh_000006" depart="0.00" departLane="-E19_0" departPos="5.10" departSpeed="11.54" departDelay="0.00" arrival="38.00" arrivalLane="E4_1" arrivalPos="136.40" arrivalSpeed="11.29" duration="38.00" routeLength="383.93" waitingTime="0.00" waitingCount="0" stopTime="0.00" timeLoss="3.59" rerouteNo="0" devices="tripinfo_south_bottleneck_veh_000006" vType="car" speedFactor="0.83" vaporized=""/>
    <tripinfo id="south_bottleneck_veh_000007" depart="0.00" departLane="-E19_1" departPos="5.10" departSpeed="13.89" departDelay="0.00" arrival="40.00" arrivalLane="E5_1" arrivalPos="136.40" arrivalSpeed="13.77" duration="40.00" routeLength="491.13" waitingTime="0.00" waitingCount="0" stopTime="0.00" timeLoss="3.41" rerouteNo="0" devices="tripinfo_south_bottleneck_veh_000007" vType="car" speedFactor="1.05" vaporized=""/>
    <tripinfo id="south_bottleneck_veh_000005" depart="0.00" departLane="-E19_2" departPos="5.10" departSpeed="13.89" departDelay="0.00" arrival="57.00" arrivalLane="-E17_1" arrivalPos="136.40" arrivalSpeed="13.23" duration="57.00" routeLength="399.41" waitingTime="21.00" waitingCount="1" stopTime="0.00" timeLoss="27.13" rerouteNo="0" devices="tripinfo_south_bottleneck_veh_000005" vType="car" speedFactor="1.03" vaporized=""/>
    <tripinfo id="south_bottleneck_veh_000001" depart="0.00" departLane="-E3_0" departPos="5.10" departSpeed="13.89" departDelay="0.00" arrival="61.00" arrivalLane="E4_0" arrivalPos="136.40" arrivalSpeed="13.20" duration="61.00" routeLength="276.73" waitingTime="34.00" waitingCount="1" stopTime="0.00" timeLoss="39.91" rerouteNo="0" devices="tripinfo_south_bottleneck_veh_000001" vType="car" speedFactor="1.06" vaporized=""/>
    <tripinfo id="south_bottleneck_veh_000009" depart="30.00" departLane="-E3_0" departPos="5.10" departSpeed="13.03" departDelay="0.00" arrival="64.00" arrivalLane="E4_0" arrivalPos="136.40" arrivalSpeed="12.63" duration="34.00" routeLength="276.73" waitingTime="5.00" waitingCount="1" stopTime="0.00" timeLoss="11.58" rerouteNo="0" devices="tripinfo_south_bottleneck_veh_000009" vType="car" speedFactor="0.94" vaporized=""/>
    <tripinfo id="south_bottleneck_veh_000002" depart="0.00" departLane="-E3_1" departPos="5.10" departSpeed="13.03" departDelay="0.00" arrival="71.00" arrivalLane="E2_1" arrivalPos="136.40" arrivalSpeed="12.76" duration="71.00" routeLength="402.10" waitingTime="34.00" waitingCount="1" stopTime="0.00" timeLoss="39.90" rerouteNo="0" devices="tripinfo_south_bottleneck_veh_000002" vType="car" speedFactor="0.94" vaporized=""/>
    <tripinfo id="south_bottleneck_veh_000010" depart="30.00" departLane="-E3_1" departPos="5.10" departSpeed="11.90" departDelay="0.00" arrival="77.00" arrivalLane="E2_1" arrivalPos="136.40" arrivalSpeed="11.21" duration="47.00" routeLength="402.10" waitingTime="5.00" waitingCount="1" stopTime="0.00" timeLoss="13.21" rerouteNo="0" devices="tripinfo_south_bottleneck_veh_000010" vType="car" speedFactor="0.86" vaporized=""/>
    <tripinfo id="south_bottleneck_veh_000014" depart="30.00" departLane="-E19_0" departPos="5.10" departSpeed="13.89" departDelay="0.00" arrival="119.00" arrivalLane="E4_1" arrivalPos="136.40" arrivalSpeed="13.03" duration="89.00" routeLength="383.93" waitingTime="53.00" waitingCount="1" stopTime="0.00" timeLoss="60.35" rerouteNo="0" devices="tripinfo_south_bottleneck_veh_000014" vType="car" speedFactor="1.12" vaporized=""/>
    <tripinfo id="south_bottleneck_veh_000022" depart="60.00" departLane="-E19_0" departPos="5.10" departSpeed="13.89" departDelay="0.00" arrival="121.00" arrivalLane="E4_1" arrivalPos="136.40" arrivalSpeed="12.88" duration="61.00" routeLength="383.93" waitingTime="25.00" waitingCount="1" stopTime="0.00" timeLoss="32.56" rerouteNo="0" devices="tripinfo_south_bottleneck_veh_000022" vType="car" speedFactor="1.01" vaporized=""/>
    <tripinfo id="south_bottleneck_veh_000030" depart="90.00" departLane="-E19_0" departPos="5.10" departSpeed="12.94" departDelay="0.00" arrival="126.00" arrivalLane="E4_1" arrivalPos="136.40" arrivalSpeed="12.44" duration="36.00" routeLength="383.93" waitingTime="0.00" waitingCount="0" stopTime="0.00" timeLoss="4.80" rerouteNo="0" devices="tripinfo_south_bottleneck_veh_000030" vType="car" speedFactor="0.93" vaporized=""/>
    <tripinfo id="south_bottleneck_veh_000013" depart="30.00" departLane="-E19_2" departPos="5.10" departSpeed="13.89" departDelay="0.00" arrival="128.00" arrivalLane="-E17_1" arrivalPos="136.40" arrivalSpeed="13.82" duration="98.00" routeLength="399.41" waitingTime="62.00" waitingCount="1" stopTime="0.00" timeLoss="67.98" rerouteNo="0" devices="tripinfo_south_bottleneck_veh_000013" vType="car" speedFactor="1.05" vaporized=""/>
    <tripinfo id="south_bottleneck_veh_000015" depart="30.00" departLane="-E19_1" departPos="5.10" departSpeed="13.77" departDelay="0.00" arrival="129.00" arrivalLane="E5_1" arrivalPos="136.40" arrivalSpeed="13.25" duration="99.00" routeLength="491.13" waitingTime="55.00" waitingCount="1" stopTime="0.00" timeLoss="62.75" rerouteNo="0" devices="tripinfo_south_bottleneck_veh_000015" vType="car" speedFactor="0.99" vaporized=""/>
    <tripinfo id="south_bottleneck_veh_000023" depart="60.00" departLane="-E19_1" departPos="5.10" departSpeed="13.54" departDelay="0.00" arrival="133.00" arrivalLane="E5_1" arrivalPos="136.40" arrivalSpeed="13.27" duration="73.00" routeLength="491.13" waitingTime="25.00" waitingCount="1" stopTime="0.00" timeLoss="34.96" rerouteNo="0" devices="tripinfo_south_bottleneck_veh_000023" vType="car" speedFactor="0.97" vaporized=""/>
    <tripinfo id="south_bottleneck_veh_000031" depart="90.00" departLane="-E19_1" departPos="5.10" departSpeed="13.89" departDelay="0.00" arrival="134.00" arrivalLane="E5_1" arrivalPos="136.40" arrivalSpeed="13.75" duration="44.00" routeLength="491.13" waitingTime="0.00" waitingCount="0" stopTime="0.00" timeLoss="8.07" rerouteNo="0" devices="tripinfo_south_bottleneck_veh_000031" vType="car" speedFactor="1.18" vaporized=""/>
    <tripinfo id="south_bottleneck_veh_000021" depart="60.00" departLane="-E19_2" departPos="5.10" departSpeed="13.89" departDelay="0.00" arrival="147.00" arrivalLane="-E17_1" arrivalPos="136.40" arrivalSpeed="13.04" duration="87.00" routeLength="399.41" waitingTime="50.00" waitingCount="1" stopTime="0.00" timeLoss="57.19" rerouteNo="0" devices="tripinfo_south_bottleneck_veh_000021" vType="car" speedFactor="1.02" vaporized=""/>
    <tripinfo id="south_bottleneck_veh_000004" depart="1.00" departLane="-E3_1" departPos="5.10" departSpeed="9.96" departDelay="1.00" arrival="152.00" arrivalLane="-E14_0" arrivalPos="136.40" arrivalSpeed="12.89" duration="151.00" routeLength="488.44" waitingTime="96.00" waitingCount="3" stopTime="0.00" timeLoss="114.95" rerouteNo="0" devices="tripinfo_south_bottleneck_veh_000004" vType="car" speedFactor="1.08" vaporized=""/>
    <tripinfo id="south_bottleneck_veh_000017" depart="60.00" departLane="-E3_0" departPos="5.10" departSpeed="12.20" departDelay="0.00" arrival="152.00" arrivalLane="E4_0" arrivalPos="136.40" arrivalSpeed="11.93" duration="92.00" routeLength="276.73" waitingTime="61.00" waitingCount="1" stopTime="0.00" timeLoss="67.90" rerouteNo="0" devices="tripinfo_south_bottleneck_veh_000017" vType="car" speedFactor="0.88" vaporized=""/>
    <tripinfo id="south_bottleneck_veh_000012" depart="31.00" departLane="-E3_1" departPos="5.10" departSpeed="8.79" departDelay="1.00" arrival="155.00" arrivalLane="-E14_0" arrivalPos="136.40" arrivalSpeed="13.39" duration="124.00" routeLength="488.44" waitingTime="65.00" waitingCount="3" stopTime="0.00" timeLoss="86.93" rerouteNo="0" devices="tripinfo_south_bottleneck_veh_000012" vType="car" speedFactor="1.03" vaporized=""/>
    <tripinfo id="south_bottleneck_veh_000025" depart="90.00" departLane="-E3_0" departPos="5.10" departSpeed="11.47" departDelay="0.00" arrival="155.00" arrivalLane="E4_0" arrivalPos="136.40" arrivalSpeed="10.65" duration="65.00" routeLength="276.73" waitingTime="34.00" waitingCount="1" stopTime="0.00" timeLoss="39.80" rerouteNo="0" devices="tripinfo_south_bottleneck_veh_000025" vType="car" speedFactor="0.83" vaporized=""/>
    <tripinfo id="south_bottleneck_veh_000033" depart="120.00" departLane="-E3_0" departPos="5.10" departSpeed="13.89" departDelay="0.00" arrival="157.00" arrivalLane="E4_0" arrivalPos="136.40" arrivalSpeed="13.71" duration="37.00" routeLength="276.73" waitingTime="7.00" waitingCount="1" stopTime="0.00" timeLoss="15.63" rerouteNo="0" devices="tripinfo_south_bottleneck_veh_000033" vType="car" speedFactor="1.01" vaporized=""/>
    <tripinfo id="south_bottleneck_veh_000018" depart="60.00" departLane="-E3_1" departPos="5.10" departSpeed="13.08" departDelay="0.00" arrival="160.00" arrivalLane="E2_1" arrivalPos="136.40" arrivalSpeed="13.07" duration="100.00" routeLength="402.10" waitingTime="61.00" waitingCount="1" stopTime="0.00" timeLoss="68.59" rerouteNo="0" devices="tripinfo_south_bottleneck_veh_000018" vType="car" speedFactor="0.94" vaporized=""/>
    <tripinfo id="south_bottleneck_veh_000026" depart="90.00" departLane="-E3_1" departPos="5.10" departSpeed="12.12" departDelay="0.00" arrival="164.00" arrivalLane="E2_1" arrivalPos="136.40" arrivalSpeed="11.85" duration="74.00" routeLength="402.10" waitingTime="34.00" waitingCount="1" stopTime="0.00" timeLoss="40.63" rerouteNo="0" devices="tripinfo_south_bottleneck_veh_000026" vType="car" speedFactor="0.87" vaporized=""/>
    <tripinfo id="south_bottleneck_veh_000034" depart="120.00" departLane="-E3_1" departPos="5.10" departSpeed="13.89" departDelay="0.00" arrival="166.00" arrivalLane="E2_1" arrivalPos="136.40" arrivalSpeed="12.90" duration="46.00" routeLength="402.10" waitingTime="8.00" waitingCount="1" stopTime="0.00" timeLoss="16.63" rerouteNo="0" devices="tripinfo_south_bottleneck_veh_000034" vType="car" speedFactor="1.17" vaporized=""/>
    <tripinfo id="south_bottleneck_veh_000041" depart="150.00" departLane="-E3_0" departPos="5.10" departSpeed="13.89" departDelay="0.00" arrival="173.00" arrivalLane="E4_0" arrivalPos="136.40" arrivalSpeed="13.18" duration="23.00" routeLength="276.73" waitingTime="0.00" waitingCount="0" stopTime="0.00" timeLoss="2.44" rerouteNo="0" devices="tripinfo_south_bottleneck_veh_000041" vType="car" speedFactor="1.03" vaporized=""/>
    <tripinfo id="south_bottleneck_veh_000008" depart="1.00" departLane="-E19_2" departPos="5.10" departSpeed="10.11" departDelay="1.00" arrival="200.00" arrivalLane="-E10_1" arrivalPos="136.40" arrivalSpeed="11.41" duration="199.00" routeLength="488.44" waitingTime="141.00" waitingCount="3" stopTime="0.00" timeLoss="157.76" rerouteNo="0" devices="tripinfo_south_bottleneck_veh_000008" vType="car" speedFactor="0.89" vaporized=""/>
    <tripinfo id="south_bottleneck_veh_000016" depart="31.00" departLane="-E19_2" departPos="5.10" departSpeed="11.40" departDelay="1.00" arrival="202.00" arrivalLane="-E10_1" arrivalPos="136.40" arrivalSpeed="11.91" duration="171.00" routeLength="488.44" waitingTime="117.00" waitingCount="2" stopTime="0.00" timeLoss="131.02" rerouteNo="0" devices="tripinfo_south_bottleneck_veh_000016" vType="car" speedFactor="0.93" vaporized=""/>
    <tripinfo id="south_bottleneck_veh_000038" depart="120.00" departLane="-E19_0" departPos="5.10" departSpeed="13.89" departDelay="0.00" arrival="209.00" arrivalLane="E4_1" arrivalPos="136.40" arrivalSpeed="13.55" duration="89.00" routeLength="383.93" waitingTime="55.00" waitingCount="1" stopTime="0.00" timeLoss="60.68" rerouteNo="0" devices="tripinfo_south_bottleneck_veh_000038" vType="car" speedFactor="1.18" vaporized=""/>
    <tripinfo id="south_bottleneck_veh_000046" depart="150.00" departLane="-E19_0" departPos="5.10" departSpeed="13.89" departDelay="0.00" arrival="211.00" arrivalLane="E4_1" arrivalPos="136.40" arrivalSpeed="13.64" duration="61.00" routeLength="383.93" waitingTime="26.00" waitingCount="1" stopTime="0.00" timeLoss="32.37" rerouteNo="0" devices="tripinfo_south_bottleneck_veh_000046" vType="car" speedFactor="1.09" vaporized=""/>
    <tripinfo id="south_bottleneck_veh_000054" depart="180.00" departLane="-E19_0" departPos="5.10" departSpeed="13.89" departDelay="0.00" arrival="213.00" arrivalLane="E4_1" arrivalPos="136.40" arrivalSpeed="13.56" duration="33.00" routeLength="383.93" waitingTime="0.00" waitingCount="0" stopTime="0.00" timeLoss="4.70" rerouteNo="0" devices="tripinfo_south_bottleneck_veh_000054" vType="car" speedFactor="1.10" vaporized=""/>
    <tripinfo id="south_bottleneck_veh_000029" depart="90.00" departLane="-E19_2" departPos="5.10" departSpeed="13.89" departDelay="0.00" arrival="217.00" arrivalLane="-E17_1" arrivalPos="136.40" arrivalSpeed="13.61" duration="127.00" routeLength="399.41" waitingTime="85.00" waitingCount="2" stopTime="0.00" timeLoss="97.98" rerouteNo="0" devices="tripinfo_south_bottleneck_veh_000029" vType="car" speedFactor="1.13" vaporized=""/>
    <tripinfo id="south_bottleneck_veh_000039" depart="120.00" departLane="-E19_1" departPos="5.10" departSpeed="13.89" departDelay="0.00" arrival="218.00" arrivalLane="E5_1" arrivalPos="136.40" arrivalSpeed="13.32" duration="98.00" routeLength="491.13" waitingTime="53.00" waitingCount="1" stopTime="0.00" timeLoss="61.68" rerouteNo="0" devices="tripinfo_south_bottleneck_veh_000039" vType="car" speedFactor="1.10" vaporized=""/>
    <tripinfo id="south_bottleneck_veh_000037" depart="120.00" departLane="-E19_2" departPos="5.10" departSpeed="13.52" departDelay="0.00" arrival="220.00" arrivalLane="-E17_1" arrivalPos="136.40" arrivalSpeed="13.27" duration="100.00" routeLength="399.41" waitingTime="58.00" waitingCount="1" stopTime="0.00" timeLoss="69.06" rerouteNo="0" devices="tripinfo_south_bottleneck_veh_000037" vType="car" speedFactor="0.97" vaporized=""/>
    <tripinfo id="south_bottleneck_veh_000003" depart="0.00" departLane="-E3_2" departPos="5.10" departSpeed="13.89" departDelay="0.00" arrival="221.00" arrivalLane="-E17_1" arrivalPos="136.40" arrivalSpeed="13.53" duration="221.00" routeLength="506.61" waitingTime="167.00" waitingCount="3" stopTime="0.00" timeLoss="183.99" rerouteNo="0" devices="tripinfo_south_bottleneck_veh_000003" vType="car" speedFactor="1.01" vaporized=""/>
    <tripinfo id="south_bottleneck_veh_000047" depart="150.00" departLane="-E19_1" departPos="5.10" departSpeed="13.85" departDelay="0.00" arrival="222.00" arrivalLane="E5_1" arrivalPos="136.40" arrivalSpeed="13.21" duration="72.00" routeLength="491.13" waitingTime="23.00" waitingCount="1" stopTime="0.00" timeLoss="34.82" rerouteNo="0" devices="tripinfo_south_bottleneck_veh_000047" vType="car" speedFactor="1.00" vaporized=""/>
    <tripinfo id="south_bottleneck_veh_000011" depart="30.00" departLane="-E3_2" departPos="5.10" departSpeed="13.89" departDelay="0.00" arrival="223.00" arrivalLane="-E17_1" arrivalPos="136.40" arrivalSpeed="13.40" duration="193.00" routeLength="506.61" waitingTime="137.00" waitingCount="3" stopTime="0.00" timeLoss="155.98" rerouteNo="0" devices="tripinfo_south_bottleneck_veh_000011" vType="car" speedFactor="1.09" vaporized=""/>
    <tripinfo id="south_bottleneck_veh_000055" depart="180.00" departLane="-E19_1" departPos="5.10" departSpeed="13.89" departDelay="0.00" arrival="224.00" arrivalLane="E5_1" arrivalPos="136.40" arrivalSpeed="12.63" duration="44.00" routeLength="491.13" waitingTime="0.00" waitingCount="0" stopTime="0.00" timeLoss="7.35" rerouteNo="0" devices="tripinfo_south_bottleneck_veh_000055" vType="car" speedFactor="1.00" vaporized=""/>
    <tripinfo id="south_bottleneck_veh_000019" depart="60.00" departLane="-E3_2" departPos="5.10" departSpeed="13.00" departDelay="0.00" arrival="226.00" arrivalLane="-E17_1" arrivalPos="136.40" arrivalSpeed="11.75" duration="166.00" routeLength="506.61" waitingTime="104.00" waitingCount="3" stopTime="0.00" timeLoss="126.40" rerouteNo="0" devices="tripinfo_south_bottleneck_veh_000019" vType="car" speedFactor="0.94" vaporized=""/>
    <tripinfo id="south_bottleneck_veh_000045" depart="150.00" departLane="-E19_2" departPos="5.10" departSpeed="13.89" departDelay="0.00" arrival="237.00" arrivalLane="-E17_1" arrivalPos="136.40" arrivalSpeed="13.38" duration="87.00" routeLength="399.41" waitingTime="51.00" waitingCount="1" stopTime="0.00" timeLoss="57.39" rerouteNo="0" devices="tripinfo_south_bottleneck_veh_000045" vType="car" speedFactor="1.04" vaporized=""/>
    <tripinfo id="south_bottleneck_veh_000049" depart="180.00" departLane="-E3_0" departPos="5.10" departSpeed="12.18" departDelay="0.00" arrival="242.00" arrivalLane="E4_0" arrivalPos="136.40" arrivalSpeed="11.06" duration="62.00" routeLength="276.73" waitingTime="32.00" waitingCount="1" stopTime="0.00" timeLoss="37.86" rerouteNo="0" devices="tripinfo_south_bottleneck_veh_000049" vType="car" speedFactor="0.88" vaporized=""/>
    <tripinfo id="south_bottleneck_veh_000020" depart="61.00" departLane="-E3_1" departPos="5.10" departSpeed="9.75" departDelay="1.00" arrival="243.00" arrivalLane="-E14_0" arrivalPos="136.40" arrivalSpeed="13.40" duration="182.00" routeLength="488.44" waitingTime="126.00" waitingCount="3" stopTime="0.00" timeLoss="145.37" rerouteNo="0" devices="tripinfo_south_bottleneck_veh_000020" vType="car" speedFactor="1.16" vaporized=""/>
    <tripinfo id="south_bottleneck_veh_000057" depart="210.00" departLane="-E3_0" departPos="5.10" departSpeed="12.49" departDelay="0.00" arrival="244.00" arrivalLane="E4_0" arrivalPos="136.40" arrivalSpeed="11.22" duration="34.00" routeLength="276.73" waitingTime="5.00" waitingCount="1" stopTime="0.00" timeLoss="10.82" rerouteNo="0" devices="tripinfo_south_bottleneck_veh_000057" vType="car" speedFactor="0.90" vaporized=""/>
    <tripinfo id="south_bottleneck_veh_000028" depart="91.00" departLane="-E3_1" departPos="5.10" departSpeed="9.04" departDelay="1.00" arrival="246.00" arrivalLane="-E14_0" arrivalPos="136.40" arrivalSpeed="13.16" duration="155.00" routeLength="488.44" waitingTime="95.00" waitingCount="3" stopTime="0.00" timeLoss="115.62" rerouteNo="0" devices="tripinfo_south_bottleneck_veh_000028" vType="car" speedFactor="0.95" vaporized=""/>
    <tripinfo id="south_bottleneck_veh_000036" depart="121.00" departLane="-E3_1" departPos="5.10" departSpeed="11.09" departDelay="1.00" arrival="248.00" arrivalLane="-E14_0" arrivalPos="136.40" arrivalSpeed="12.86" duration="127.00" routeLength="488.44" waitingTime="67.00" waitingCount="3" stopTime="0.00" timeLoss="90.11" rerouteNo="0" devices="tripinfo_south_bottleneck_veh_000036" vType="car" speedFactor="1.02" vaporized=""/>
    <tripinfo id="south_bottleneck_veh_000042" depart="150.00" departLane="-E3_1" departPos="5.10" departSpeed="13.29" departDelay="0.00" arrival="250.00" arrivalLane="E2_1" arrivalPos="136.40" arrivalSpeed="12.58" duration="100.00" routeLength="402.10" waitingTime="62.00" waitingCount="1" stopTime="0.00" timeLoss="68.83" rerouteNo="0" devices="tripinfo_south_bottleneck_veh_000042" vType="car" speedFactor="0.96" vaporized=""/>
    <tripinfo id="south_bottleneck_veh_000050" depart="180.00" departLane="-E3_1" departPos="5.10" departSpeed="11.81" departDelay="0.00" arrival="256.00" arrivalLane="E2_1" arrivalPos="136.40" arrivalSpeed="11.39" duration="76.00" routeLength="402.10" waitingTime="33.00" waitingCount="1" stopTime="0.00" timeLoss="41.09" rerouteNo="0" devices="tripinfo_south_bottleneck_veh_000050" vType="car" speedFactor="0.85" vaporized=""/>
    <tripinfo id="south_bottleneck_veh_000058" depart="210.00" departLane="-E3_1" departPos="5.10" departSpeed="13.89" departDelay="0.00" arrival="257.00" arrivalLane="E2_1" arrivalPos="136.40" arrivalSpeed="12.37" duration="47.00" routeLength="402.10" waitingTime="8.00" waitingCount="1" stopTime="0.00" timeLoss="18.01" rerouteNo="0" devices="tripinfo_south_bottleneck_veh_000058" vType="car" speedFactor="1.14" vaporized=""/>
    <tripinfo id="south_bottleneck_veh_000065" depart="240.00" departLane="-E3_0" departPos="5.10" departSpeed="13.02" departDelay="0.00" arrival="265.00" arrivalLane="E4_0" arrivalPos="136.40" arrivalSpeed="11.81" duration="25.00" routeLength="276.73" waitingTime="0.00" waitingCount="0" stopTime="0.00" timeLoss="2.73" rerouteNo="0" devices="tripinfo_south_bottleneck_veh_000065" vType="car" speedFactor="0.94" vaporized=""/>
    <tripinfo id="south_bottleneck_veh_000024" depart="61.00" departLane="-E19_2" departPos="5.10" departSpeed="10.16" departDelay="1.00" arrival="290.00" arrivalLane="-E10_1" arrivalPos="136.40" arrivalSpeed="12.29" duration="229.00" routeLength="488.44" waitingTime="170.00" waitingCount="3" stopTime="0.00" timeLoss="187.99" rerouteNo="0" devices="tripinfo_south_bottleneck_veh_000024" vType="car" speedFactor="0.89" vaporized=""/>
    <tripinfo id="south_bottleneck_veh_000032" depart="91.00" departLane="-E19_2" departPos="5.10" departSpeed="10.55" departDelay="1.00" arrival="292.00" arrivalLane="-E10_1" arrivalPos="136.40" arrivalSpeed="12.60" duration="201.00" routeLength="488.44" waitingTime="141.00" waitingCount="3" stopTime="0.00" timeLoss="164.31" rerouteNo="0" devices="tripinfo_south_bottleneck_veh_000032" vType="car" speedFactor="1.15" vaporized=""/>
    <tripinfo id="south_bottleneck_veh_000040" depart="121.00" departLane="-E19_2" departPos="5.10" departSpeed="10.28" departDelay="1.00" arrival="294.00" arrivalLane="-E10_1" arrivalPos="136.40" arrivalSpeed="11.89" duration="173.00" routeLength="488.44" waitingTime="112.00" waitingCount="2" stopTime="0.00" timeLoss="131.76" rerouteNo="0" devices="tripinfo_south_bottleneck_veh_000040" vType="car" speedFactor="0.90" vaporized=""/>
    <tripinfo id="south_bottleneck_veh_000062" depart="210.00" departLane="-E19_0" departPos="5.10" departSpeed="13.89" departDelay="0.00" arrival="299.00" arrivalLane="E4_1" arrivalPos="136.40" arrivalSpeed="13.43" duration="89.00" routeLength="383.93" waitingTime="53.00" waitingCount="1" stopTime="0.00" timeLoss="60.35" rerouteNo="0" devices="tripinfo_south_bottleneck_veh_000062" vType="car" speedFactor="1.12" vaporized=""/>
    <tripinfo id="south_bottleneck_veh_000070" depart="240.00" departLane="-E19_0" departPos="5.10" departSpeed="13.89" departDelay="0.00" arrival="301.00" arrivalLane="E4_1" arrivalPos="136.40" arrivalSpeed="13.06" duration="61.00" routeLength="383.93" waitingTime="25.00" waitingCount="1" stopTime="0.00" timeLoss="32.24" rerouteNo="0" devices="tripinfo_south_bottleneck_veh_000070" vType="car" speedFactor="1.02" vaporized=""/>
    <tripinfo id="south_bottleneck_veh_000078" depart="270.00" departLane="-E19_0" departPos="5.10" departSpeed="13.64" departDelay="0.00" arrival="304.00" arrivalLane="E4_1" arrivalPos="136.40" arrivalSpeed="12.50" duration="34.00" routeLength="383.93" waitingTime="0.00" waitingCount="0" stopTime="0.00" timeLoss="5.04" rerouteNo="0" devices="tripinfo_south_bottleneck_veh_000078" vType="car" speedFactor="0.98" vaporized=""/>
    <tripinfo id="south_bottleneck_veh_000053" depart="180.00" departLane="-E19_2" departPos="5.10" departSpeed="13.89" departDelay="0.00" arrival="308.00" arrivalLane="-E17_1" arrivalPos="136.40" arrivalSpeed="13.25" duration="128.00" routeLength="399.41" waitingTime="84.00" waitingCount="2" stopTime="0.00" timeLoss="98.15" rerouteNo="0" devices="tripinfo_south_bottleneck_veh_000053" vType="car" speedFactor="1.02" vaporized=""/>
    <tripinfo id="south_bottleneck_veh_000063" depart="210.00" departLane="-E19_1" departPos="5.10" departSpeed="13.89" departDelay="0.00" arrival="309.00" arrivalLane="E5_1" arrivalPos="136.40" arrivalSpeed="12.99" duration="99.00" routeLength="491.13" waitingTime="54.00" waitingCount="1" stopTime="0.00" timeLoss="63.08" rerouteNo="0" devices="tripinfo_south_bottleneck_veh_000063" vType="car" speedFactor="1.02" vaporized=""/>
    <tripinfo id="south_bottleneck_veh_000061" depart="210.00" departLane="-E19_2" departPos="5.10" departSpeed="13.89" departDelay="0.00" arrival="310.00" arrivalLane="-E17_1" arrivalPos="136.40" arrivalSpeed="13.82" duration="100.00" routeLength="399.41" waitingTime="59.00" waitingCount="1" stopTime="0.00" timeLoss="69.98" rerouteNo="0" devices="tripinfo_south_bottleneck_veh_000061" vType="car" speedFactor="1.08" vaporized=""/>
    <tripinfo id="south_bottleneck_veh_000071" depart="240.00" departLane="-E19_1" departPos="5.10" departSpeed="13.89" departDelay="0.00" arrival="312.00" arrivalLane="E5_1" arrivalPos="136.40" arrivalSpeed="13.88" duration="72.00" routeLength="491.13" waitingTime="25.00" waitingCount="1" stopTime="0.00" timeLoss="35.37" rerouteNo="0" devices="tripinfo_south_bottleneck_veh_000071" vType="car" speedFactor="1.02" vaporized=""/>
    <tripinfo id="south_bottleneck_veh_000027" depart="90.00" departLane="-E3_2" departPos="5.10" departSpeed="12.74" departDelay="0.00" arrival="313.00" arrivalLane="-E17_1" arrivalPos="136.40" arrivalSpeed="12.28" duration="223.00" routeLength="506.61" waitingTime="161.00" waitingCount="3" stopTime="0.00" timeLoss="182.09" rerouteNo="0" devices="tripinfo_south_bottleneck_veh_000027" vType="car" speedFactor="0.92" vaporized=""/>
    <tripinfo id="south_bottleneck_veh_000035" depart="120.00" departLane="-E3_2" departPos="5.10" departSpeed="13.82" departDelay="0.00" arrival="315.00" arrivalLane="-E17_1" arrivalPos="136.40" arrivalSpeed="13.29" duration="195.00" routeLength="506.61" waitingTime="133.00" waitingCount="3" stopTime="0.00" timeLoss="156.89" rerouteNo="0" devices="tripinfo_south_bottleneck_veh_000035" vType="car" speedFactor="0.99" vaporized=""/>
    <tripinfo id="south_bottleneck_veh_000079" depart="270.00" departLane="-E19_1" departPos="5.10" departSpeed="13.89" departDelay="0.00" arrival="315.00" arrivalLane="E5_1" arrivalPos="136.40" arrivalSpeed="13.18" duration="45.00" routeLength="491.13" waitingTime="0.00" waitingCount="0" stopTime="0.00" timeLoss="8.36" rerouteNo="0" devices="tripinfo_south_bottleneck_veh_000079" vType="car" speedFactor="1.01" vaporized=""/>
    <tripinfo id="south_bottleneck_veh_000043" depart="150.00" departLane="-E3_2" departPos="5.10" departSpeed="13.89" departDelay="0.00" arrival="316.00" arrivalLane="-E17_1" arrivalPos="136.40" arrivalSpeed="13.57" duration="166.00" routeLength="506.61" waitingTime="102.00" waitingCount="3" stopTime="0.00" timeLoss="129.06" rerouteNo="0" devices="tripinfo_south_bottleneck_veh_000043" vType="car" speedFactor="1.09" vaporized=""/>
    <tripinfo id="south_bottleneck_veh_000069" depart="240.00" departLane="-E19_2" departPos="5.10" departSpeed="13.89" departDelay="0.00" arrival="327.00" arrivalLane="-E17_1" arrivalPos="136.40" arrivalSpeed="13.71" duration="87.00" routeLength="399.41" waitingTime="49.00" waitingCount="1" stopTime="0.00" timeLoss="57.01" rerouteNo="0" devices="tripinfo_south_bottleneck_veh_000069" vType="car" speedFactor="1.04" vaporized=""/>
    <tripinfo id="south_bottleneck_veh_000073" depart="270.00" departLane="-E3_0" departPos="5.10" departSpeed="13.06" departDelay="0.00" arrival="331.00" arrivalLane="E4_0" arrivalPos="136.40" arrivalSpeed="13.04" duration="61.00" routeLength="276.73" waitingTime="32.00" waitingCount="1" stopTime="0.00" timeLoss="39.18" rerouteNo="0" devices="tripinfo_south_bottleneck_veh_000073" vType="car" speedFactor="0.94" vaporized=""/>
    <tripinfo id="south_bottleneck_veh_000044" depart="151.00" departLane="-E3_1" departPos="5.10" departSpeed="9.97" departDelay="1.00" arrival="332.00" arrivalLane="-E14_0" arrivalPos="136.40" arrivalSpeed="13.64" duration="181.00" routeLength="488.44" waitingTime="127.00" waitingCount="3" stopTime="0.00" timeLoss="144.95" rerouteNo="0" devices="tripinfo_south_bottleneck_veh_000044" vType="car" speedFactor="1.04" vaporized=""/>
    <tripinfo id="south_bottleneck_veh_000081" depart="300.00" departLane="-E3_0" departPos="5.10" departSpeed="13.89" departDelay="0.00" arrival="333.00" arrivalLane="E4_0" arrivalPos="136.40" arrivalSpeed="13.84" duration="33.00" routeLength="276.73" waitingTime="5.00" waitingCount="1" stopTime="0.00" timeLoss="11.77" rerouteNo="0" devices="tripinfo_south_bottleneck_veh_000081" vType="car" speedFactor="1.03" vaporized=""/>
    <tripinfo id="south_bottleneck_veh_000052" depart="181.00" departLane="-E3_1" departPos="5.10" departSpeed="9.05" departDelay="1.00" arrival="335.00" arrivalLane="-E14_0" arrivalPos="136.40" arrivalSpeed="13.14" duration="154.00" routeLength="488.44" waitingTime="93.00" waitingCount="3" stopTime="0.00" timeLoss="117.41" rerouteNo="0" devices="tripinfo_south_bottleneck_veh_000052" vType="car" speedFactor="1.17" vaporized=""/>
    <tripinfo id="south_bottleneck_veh_000060" depart="211.00" departLane="-E3_1" departPos="5.10" departSpeed="10.81" departDelay="1.00" arrival="338.00" arrivalLane="-E14_0" arrivalPos="136.40" arrivalSpeed="13.12" duration="127.00" routeLength="488.44" waitingTime="64.00" waitingCount="3" stopTime="0.00" timeLoss="89.11" rerouteNo="0" devices="tripinfo_south_bottleneck_veh_000060" vType="car" speedFactor="0.97" vaporized=""/>