<?xml version="1.0" encoding="UTF-8"?>

<!-- generated on 2026-07-17 17:25:28 by Eclipse SUMO sumo Version 1.19.0
<configuration xmlns:xsi="http://www.w3.org/2001/XMLSchema-instance" xsi:noNamespaceSchemaLocation="http://sumo.dlr.de/xsd/sumoConfiguration.xsd">

    <input>
        <net-file value="test_random_offsets_seed20260708.net.xml"/>
        <route-files value="west_bottleneck_no_change.rou.xml"/>
    </input>

    <output>
        <tripinfo-output value="tripinfo_west_bottleneck_no_change.xml"/>
    </output>

    <time>
        <begin value="0"/>
    </time>

    <report>
        <duration-log.statistics value="true"/>
        <no-step-log value="true"/>
    </report>

</configuration>
-->

<tripinfos xmlns:xsi="http://www.w3.org/2001/XMLSchema-instance" xsi:noNamespaceSchemaLocation="http://sumo.dlr.de/xsd/tripinfo_file.xsd">
    <tripinfo id="west_bottleneck_veh_000005" depart="1.00" departLane="E9_0" departPos="5.10" departSpeed="11.05" departDelay="1.00" arrival="83.00" arrivalLane="-E18_1" arrivalPos="136.40" arrivalSpeed="13.06" duration="82.00" routeLength="383.93" waitingTime="38.00" waitingCount="2" stopTime="0.00" timeLoss="52.90" rerouteNo="0" devices="tripinfo_west_bottleneck_veh_000005" vType="car" speedFactor="1.03" vaporized=""/>
    <tripinfo id="west_bottleneck_veh_000008" depart="1.00" departLane="E10_1" departPos="5.10" departSpeed="7.20" departDelay="1.00" arrival="83.00" arrivalLane="-E17_0" arrivalPos="136.40" arrivalSpeed="12.01" duration="82.00" routeLength="383.93" waitingTime="42.00" waitingCount="1" stopTime="0.00" timeLoss="49.47" rerouteNo="0" devices="tripinfo_west_bottleneck_veh_000008" vType="car" speedFactor="0.89" vaporized=""/>
    <tripinfo id="west_bottleneck_veh_000014" depart="31.00" departLane="E9_0" departPos="5.10" departSpeed="10.73" departDelay="1.00" arrival="85.00" arrivalLane="-E18_1" arrivalPos="136.40" arrivalSpeed="12.94" duration="54.00" routeLength="383.93" waitingTime="10.00" waitingCount="2" stopTime="0.00" timeLoss="25.17" rerouteNo="0" devices="tripinfo_west_bottleneck_veh_000014" vType="car" speedFactor="1.12" vaporized=""/>
    <tripinfo id="west_bottleneck_veh_000004" depart="2.00" departLane="E9_1" departPos="5.10" departSpeed="7.01" departDelay="2.00" arrival="91.00" arrivalLane="-E14_2" arrivalPos="136.40" arrivalSpeed="12.96" duration="89.00" routeLength="399.41" waitingTime="44.00" waitingCount="2" stopTime="0.00" timeLoss="59.33" rerouteNo="0" devices="tripinfo_west_bottleneck_veh_000004" vType="car" speedFactor="1.08" vaporized=""/>
    <tripinfo id="west_bottleneck_veh_000013" depart="32.00" departLane="E9_1" departPos="5.10" departSpeed="3.50" departDelay="2.00" arrival="93.00" arrivalLane="-E14_2" arrivalPos="136.40" arrivalSpeed="12.97" duration="61.00" routeLength="399.41" waitingTime="12.00" waitingCount="2" stopTime="0.00" timeLoss="31.38" rerouteNo="0" devices="tripinfo_west_bottleneck_veh_000013" vType="car" speedFactor="1.05" vaporized=""/>
    <tripinfo id="west_bottleneck_veh_000007" depart="0.00" departLane="E10_2" departPos="5.10" departSpeed="13.89" departDelay="0.00" arrival="114.00" arrivalLane="E5_1" arrivalPos="136.40" arrivalSpeed="13.02" duration="114.00" routeLength="506.61" waitingTime="59.00" waitingCount="3" stopTime="0.00" timeLoss="76.46" rerouteNo="0" devices="tripinfo_west_bottleneck_veh_000007" vType="car" speedFactor="1.05" vaporized=""/>
    <tripinfo id="west_bottleneck_veh_000016" depart="30.00" departLane="E10_2" departPos="5.10" departSpeed="12.87" departDelay="0.00" arrival="116.00" arrivalLane="E5_1" arrivalPos="136.40" arrivalSpeed="12.19" duration="86.00" routeLength="506.61" waitingTime="35.00" waitingCount="1" stopTime="0.00" timeLoss="46.12" rerouteNo="0" devices="tripinfo_west_bottleneck_veh_000016" vType="car" speedFactor="0.93" vaporized=""/>
    <tripinfo id="west_bottleneck_veh_000002" depart="1.00" departLane="E9_1" departPos="5.10" departSpeed="10.23" departDelay="1.00" arrival="118.00" arrivalLane="E5_1" arrivalPos="136.40" arrivalSpeed="12.25" duration="117.00" routeLength="509.30" waitingTime="63.00" waitingCount="2" stopTime="0.00" timeLoss="77.79" rerouteNo="0" devices="tripinfo_west_bottleneck_veh_000002" vType="car" speedFactor="0.94" vaporized=""/>
    <tripinfo id="west_bottleneck_veh_000011" depart="31.00" departLane="E9_1" departPos="5.10" departSpeed="8.89" departDelay="1.00" arrival="120.00" arrivalLane="E5_1" arrivalPos="136.40" arrivalSpeed="13.69" duration="89.00" routeLength="509.30" waitingTime="35.00" waitingCount="2" stopTime="0.00" timeLoss="51.73" rerouteNo="0" devices="tripinfo_west_bottleneck_veh_000011" vType="car" speedFactor="1.09" vaporized=""/>
    <tripinfo id="west_bottleneck_veh_000001" depart="0.00" departLane="E9_1" departPos="5.10" departSpeed="13.89" departDelay="0.00" arrival="157.00" arrivalLane="E5_0" arrivalPos="136.40" arrivalSpeed="13.09" duration="157.00" routeLength="681.98" waitingTime="89.00" waitingCount="2" stopTime="0.00" timeLoss="104.90" rerouteNo="0" devices="tripinfo_west_bottleneck_veh_000001" vType="car" speedFactor="1.06" vaporized=""/>
    <tripinfo id="west_bottleneck_veh_000006" depart="0.00" departLane="E10_1" departPos="5.10" departSpeed="11.54" departDelay="0.00" arrival="157.00" arrivalLane="E19_0" arrivalPos="136.40" arrivalSpeed="11.52" duration="157.00" routeLength="488.44" waitingTime="103.00" waitingCount="2" stopTime="0.00" timeLoss="113.52" rerouteNo="0" devices="tripinfo_west_bottleneck_veh_000006" vType="car" speedFactor="0.83" vaporized=""/>
    <tripinfo id="west_bottleneck_veh_000015" depart="30.00" departLane="E10_1" departPos="5.10" departSpeed="13.77" departDelay="0.00" arrival="159.00" arrivalLane="E19_0" arrivalPos="136.40" arrivalSpeed="12.58" duration="129.00" routeLength="488.44" waitingTime="76.00" waitingCount="2" stopTime="0.00" timeLoss="91.93" rerouteNo="0" devices="tripinfo_west_bottleneck_veh_000015" vType="car" speedFactor="0.99" vaporized=""/>
    <tripinfo id="west_bottleneck_veh_000017" depart="31.00" departLane="E10_1" departPos="5.10" departSpeed="10.82" departDelay="1.00" arrival="173.00" arrivalLane="-E17_0" arrivalPos="136.40" arrivalSpeed="11.99" duration="142.00" routeLength="383.93" waitingTime="98.00" waitingCount="2" stopTime="0.00" timeLoss="109.16" rerouteNo="0" devices="tripinfo_west_bottleneck_veh_000017" vType="car" speedFactor="0.88" vaporized=""/>
    <tripinfo id="west_bottleneck_veh_000023" depart="61.00" departLane="E9_0" departPos="5.10" departSpeed="10.25" departDelay="1.00" arrival="173.00" arrivalLane="-E18_1" arrivalPos="136.40" arrivalSpeed="13.24" duration="112.00" routeLength="383.93" waitingTime="70.00" waitingCount="2" stopTime="0.00" timeLoss="82.54" rerouteNo="0" devices="tripinfo_west_bottleneck_veh_000023" vType="car" speedFactor="0.97" vaporized=""/>
    <tripinfo id="west_bottleneck_veh_000032" depart="91.00" departLane="E9_0" departPos="5.10" departSpeed="9.67" departDelay="1.00" arrival="175.00" arrivalLane="-E18_1" arrivalPos="136.40" arrivalSpeed="13.19" duration="84.00" routeLength="383.93" waitingTime="39.00" waitingCount="2" stopTime="0.00" timeLoss="55.07" rerouteNo="0" devices="tripinfo_west_bottleneck_veh_000032" vType="car" speedFactor="1.15" vaporized=""/>
    <tripinfo id="west_bottleneck_veh_000026" depart="61.00" departLane="E10_1" departPos="5.10" departSpeed="8.71" departDelay="1.00" arrival="176.00" arrivalLane="-E17_0" arrivalPos="136.40" arrivalSpeed="10.95" duration="115.00" routeLength="383.93" waitingTime="66.00" waitingCount="2" stopTime="0.00" timeLoss="81.88" rerouteNo="0" devices="tripinfo_west_bottleneck_veh_000026" vType="car" speedFactor="0.87" vaporized=""/>
    <tripinfo id="west_bottleneck_veh_000041" depart="121.00" departLane="E9_0" departPos="5.10" departSpeed="10.09" departDelay="1.00" arrival="176.00" arrivalLane="-E18_1" arrivalPos="136.40" arrivalSpeed="13.39" duration="55.00" routeLength="383.93" waitingTime="10.00" waitingCount="1" stopTime="0.00" timeLoss="26.67" rerouteNo="0" devices="tripinfo_west_bottleneck_veh_000041" vType="car" speedFactor="1.03" vaporized=""/>
    <tripinfo id="west_bottleneck_veh_000035" depart="91.00" departLane="E10_1" departPos="5.10" departSpeed="10.73" departDelay="1.00" arrival="178.00" arrivalLane="-E17_0" arrivalPos="136.40" arrivalSpeed="13.35" duration="87.00" routeLength="383.93" waitingTime="39.00" waitingCount="1" stopTime="0.00" timeLoss="57.92" rerouteNo="0" devices="tripinfo_west_bottleneck_veh_000035" vType="car" speedFactor="0.99" vaporized=""/>
    <tripinfo id="west_bottleneck_veh_000022" depart="62.00" departLane="E9_1" departPos="5.10" departSpeed="6.19" departDelay="2.00" arrival="181.00" arrivalLane="-E14_2" arrivalPos="136.40" arrivalSpeed="12.66" duration="119.00" routeLength="399.41" waitingTime="77.00" waitingCount="2" stopTime="0.00" timeLoss="89.11" rerouteNo="0" devices="tripinfo_west_bottleneck_veh_000022" vType="car" speedFactor="1.01" vaporized=""/>
    <tripinfo id="west_bottleneck_veh_000031" depart="92.00" departLane="E9_1" departPos="5.10" departSpeed="6.50" departDelay="2.00" arrival="183.00" arrivalLane="-E14_2" arrivalPos="136.40" arrivalSpeed="13.67" duration="91.00" routeLength="399.41" waitingTime="45.00" waitingCount="2" stopTime="0.00" timeLoss="61.61" rerouteNo="0" devices="tripinfo_west_bottleneck_veh_000031" vType="car" speedFactor="1.18" vaporized=""/>
    <tripinfo id="west_bottleneck_veh_000040" depart="122.00" departLane="E9_1" departPos="5.10" departSpeed="7.14" departDelay="2.00" arrival="187.00" arrivalLane="-E14_2" arrivalPos="136.40" arrivalSpeed="11.83" duration="65.00" routeLength="399.41" waitingTime="13.00" waitingCount="2" stopTime="0.00" timeLoss="31.71" rerouteNo="0" devices="tripinfo_west_bottleneck_veh_000040" vType="car" speedFactor="0.90" vaporized=""/>
    <tripinfo id="west_bottleneck_veh_000009" depart="3.00" departLane="E10_1" departPos="5.10" departSpeed="7.39" departDelay="3.00" arrival="197.00" arrivalLane="E4_1" arrivalPos="136.40" arrivalSpeed="12.99" duration="194.00" routeLength="613.81" waitingTime="125.00" waitingCount="3" stopTime="0.00" timeLoss="146.08" rerouteNo="0" devices="tripinfo_west_bottleneck_veh_000009" vType="car" speedFactor="0.94" vaporized=""/>
    <tripinfo id="west_bottleneck_veh_000003" depart="0.00" departLane="E9_0" departPos="5.10" departSpeed="13.89" departDelay="0.00" arrival="199.00" arrivalLane="E4_1" arrivalPos="136.40" arrivalSpeed="13.52" duration="199.00" routeLength="595.64" waitingTime="129.00" waitingCount="4" stopTime="0.00" timeLoss="154.58" rerouteNo="0" devices="tripinfo_west_bottleneck_veh_000003" vType="car" speedFactor="1.01" vaporized=""/>
    <tripinfo id="west_bottleneck_veh_000012" depart="30.00" departLane="E9_0" departPos="5.10" departSpeed="13.89" departDelay="0.00" arrival="201.00" arrivalLane="E4_1" arrivalPos="136.40" arrivalSpeed="13.53" duration="171.00" routeLength="595.64" waitingTime="97.00" waitingCount="4" stopTime="0.00" timeLoss="126.31" rerouteNo="0" devices="tripinfo_west_bottleneck_veh_000012" vType="car" speedFactor="1.03" vaporized=""/>
    <tripinfo id="west_bottleneck_veh_000020" depart="61.00" departLane="E9_1" departPos="5.10" departSpeed="10.10" departDelay="1.00" arrival="203.00" arrivalLane="E5_1" arrivalPos="136.40" arrivalSpeed="13.25" duration="142.00" routeLength="509.30" waitingTime="90.00" waitingCount="2" stopTime="0.00" timeLoss="105.06" rerouteNo="0" devices="tripinfo_west_bottleneck_veh_000020" vType="car" speedFactor="1.16" vaporized=""/>
    <tripinfo id="west_bottleneck_veh_000021" depart="60.00" departLane="E9_0" departPos="5.10" departSpeed="13.89" departDelay="0.00" arrival="203.00" arrivalLane="E4_1" arrivalPos="136.40" arrivalSpeed="12.84" duration="143.00" routeLength="595.64" waitingTime="72.00" waitingCount="3" stopTime="0.00" timeLoss="97.78" rerouteNo="0" devices="tripinfo_west_bottleneck_veh_000021" vType="car" speedFactor="1.02" vaporized=""/>
    <tripinfo id="west_bottleneck_veh_000018" depart="32.00" departLane="E10_1" departPos="5.10" departSpeed="6.11" departDelay="2.00" arrival="205.00" arrivalLane="E4_1" arrivalPos="136.40" arrivalSpeed="12.30" duration="173.00" routeLength="613.81" waitingTime="97.00" waitingCount="3" stopTime="0.00" timeLoss="124.48" rerouteNo="0" devices="tripinfo_west_bottleneck_veh_000018" vType="car" speedFactor="0.94" vaporized=""/>
    <tripinfo id="west_bottleneck_veh_000025" depart="60.00" departLane="E10_2" departPos="5.10" departSpeed="11.47" departDelay="0.00" arrival="208.00" arrivalLane="E5_1" arrivalPos="136.40" arrivalSpeed="10.22" duration="148.00" routeLength="506.61" waitingTime="86.00" waitingCount="3" stopTime="0.00" timeLoss="102.91" rerouteNo="0" devices="tripinfo_west_bottleneck_veh_000025" vType="car" speedFactor="0.83" vaporized=""/>
    <tripinfo id="west_bottleneck_veh_000034" depart="90.00" departLane="E10_2" departPos="5.10" departSpeed="13.89" departDelay="0.00" arrival="210.00" arrivalLane="E5_1" arrivalPos="136.40" arrivalSpeed="13.18" duration="120.00" routeLength="506.61" waitingTime="56.00" waitingCount="3" stopTime="0.00" timeLoss="82.52" rerouteNo="0" devices="tripinfo_west_bottleneck_veh_000034" vType="car" speedFactor="1.17" vaporized=""/>
    <tripinfo id="west_bottleneck_veh_000043" depart="120.00" departLane="E10_2" departPos="5.10" departSpeed="13.89" departDelay="0.00" arrival="212.00" arrivalLane="E5_1" arrivalPos="136.40" arrivalSpeed="13.22" duration="92.00" routeLength="506.61" waitingTime="36.00" waitingCount="2" stopTime="0.00" timeLoss="54.24" rerouteNo="0" devices="tripinfo_west_bottleneck_veh_000043" vType="car" speedFactor="1.09" vaporized=""/>
    <tripinfo id="west_bottleneck_veh_000029" depart="91.00" departLane="E9_1" departPos="5.10" departSpeed="10.37" departDelay="1.00" arrival="213.00" arrivalLane="E5_1" arrivalPos="136.40" arrivalSpeed="13.41" duration="122.00" routeLength="509.30" waitingTime="68.00" waitingCount="2" stopTime="0.00" timeLoss="85.05" rerouteNo="0" devices="tripinfo_west_bottleneck_veh_000029" vType="car" speedFactor="1.13" vaporized=""/>
    <tripinfo id="west_bottleneck_veh_000038" depart="121.00" departLane="E9_1" departPos="5.10" departSpeed="10.70" departDelay="1.00" arrival="215.00" arrivalLane="E5_1" arrivalPos="136.40" arrivalSpeed="13.47" duration="94.00" routeLength="509.30" waitingTime="37.00" waitingCount="2" stopTime="0.00" timeLoss="56.74" rerouteNo="0" devices="tripinfo_west_bottleneck_veh_000038" vType="car" speedFactor="1.18" vaporized=""/>
    <tripinfo id="west_bottleneck_veh_000024" depart="60.00" departLane="E10_1" departPos="5.10" departSpeed="12.36" departDelay="0.00" arrival="247.00" arrivalLane="E19_0" arrivalPos="136.40" arrivalSpeed="11.46" duration="187.00" routeLength="488.44" waitingTime="126.00" waitingCount="3" stopTime="0.00" timeLoss="145.75" rerouteNo="0" devices="tripinfo_west_bottleneck_veh_000024" vType="car" speedFactor="0.89" vaporized=""/>
    <tripinfo id="west_bottleneck_veh_000010" depart="30.00" departLane="E9_1" departPos="5.10" departSpeed="11.90" departDelay="0.00" arrival="249.00" arrivalLane="E5_0" arrivalPos="136.40" arrivalSpeed="10.90" duration="219.00" routeLength="681.98" waitingTime="134.00" waitingCount="4" stopTime="0.00" timeLoss="158.64" rerouteNo="0" devices="tripinfo_west_bottleneck_veh_000010" vType="car" speedFactor="0.86" vaporized=""/>
    <tripinfo id="west_bottleneck_veh_000033" depart="90.00" departLane="E10_1" departPos="5.10" departSpeed="13.89" departDelay="0.00" arrival="249.00" arrivalLane="E19_0" arrivalPos="136.40" arrivalSpeed="13.35" duration="159.00" routeLength="488.44" waitingTime="98.00" waitingCount="2" stopTime="0.00" timeLoss="121.83" rerouteNo="0" devices="tripinfo_west_bottleneck_veh_000033" vType="car" speedFactor="1.01" vaporized=""/>
    <tripinfo id="west_bottleneck_veh_000044" depart="121.00" departLane="E10_1" departPos="5.10" departSpeed="10.32" departDelay="1.00" arrival="262.00" arrivalLane="-E17_0" arrivalPos="136.40" arrivalSpeed="13.36" duration="141.00" routeLength="383.93" waitingTime="96.00" waitingCount="2" stopTime="0.00" timeLoss="112.05" rerouteNo="0" devices="tripinfo_west_bottleneck_veh_000044" vType="car" speedFactor="1.04" vaporized=""/>
    <tripinfo id="west_bottleneck_veh_000053" depart="151.00" departLane="E10_1" departPos="5.10" departSpeed="8.22" departDelay="1.00" arrival="264.00" arrivalLane="-E17_0" arrivalPos="136.40" arrivalSpeed="12.82" duration="113.00" routeLength="383.93" waitingTime="66.00" waitingCount="2" stopTime="0.00" timeLoss="84.22" rerouteNo="0" devices="tripinfo_west_bottleneck_veh_000053" vType="car" speedFactor="1.02" vaporized=""/>
    <tripinfo id="west_bottleneck_veh_000062" depart="181.00" departLane="E10_1" departPos="5.10" departSpeed="10.81" departDelay="1.00" arrival="266.00" arrivalLane="-E17_0" arrivalPos="136.40" arrivalSpeed="13.57" duration="85.00" routeLength="383.93" waitingTime="39.00" waitingCount="1" stopTime="0.00" timeLoss="56.61" rerouteNo="0" devices="tripinfo_west_bottleneck_veh_000062" vType="car" speedFactor="1.12" vaporized=""/>
    <tripinfo id="west_bottleneck_veh_000049" depart="152.00" departLane="E9_1" departPos="5.10" departSpeed="6.41" departDelay="2.00" arrival="273.00" arrivalLane="-E14_2" arrivalPos="136.40" arrivalSpeed="12.14" duration="121.00" routeLength="399.41" waitingTime="76.00" waitingCount="2" stopTime="0.00" timeLoss="86.69" rerouteNo="0" devices="tripinfo_west_bottleneck_veh_000049" vType="car" speedFactor="0.88" vaporized=""/>
    <tripinfo id="west_bottleneck_veh_000058" depart="182.00" departLane="E9_1" departPos="5.10" departSpeed="6.28" departDelay="2.00" arrival="274.00" arrivalLane="-E14_2" arrivalPos="136.40" arrivalSpeed="13.86" duration="92.00" routeLength="399.41" waitingTime="44.00" waitingCount="2" stopTime="0.00" timeLoss="62.80" rerouteNo="0" devices="tripinfo_west_bottleneck_veh_000058" vType="car" speedFactor="1.14" vaporized=""/>
    <tripinfo id="west_bottleneck_veh_000067" depart="212.00" departLane="E9_1" departPos="5.10" departSpeed="7.26" departDelay="2.00" arrival="277.00" arrivalLane="-E14_2" arrivalPos="136.40" arrivalSpeed="12.41" duration="65.00" routeLength="399.41" waitingTime="13.00" waitingCount="2" stopTime="0.00" timeLoss="31.69" rerouteNo="0" devices="tripinfo_west_bottleneck_veh_000067" vType="car" speedFactor="0.91" vaporized=""/>
    <tripinfo id="west_bottleneck_veh_000027" depart="62.00" departLane="E10_1" departPos="5.10" departSpeed="3.92" departDelay="2.00" arrival="288.00" arrivalLane="E4_1" arrivalPos="136.40" arrivalSpeed="12.46" duration="226.00" routeLength="613.81" waitingTime="146.00" waitingCount="4" stopTime="0.00" timeLoss="176.83" rerouteNo="0" devices="tripinfo_west_bottleneck_veh_000027" vType="car" speedFactor="0.92" vaporized=""/>
    <tripinfo id="west_bottleneck_veh_000036" depart="92.00" departLane="E10_1" departPos="5.10" departSpeed="7.02" departDelay="2.00" arrival="290.00" arrivalLane="E4_1" arrivalPos="136.40" arrivalSpeed="13.35" duration="198.00" routeLength="613.81" waitingTime="123.00" waitingCount="3" stopTime="0.00" timeLoss="152.40" rerouteNo="0" devices="tripinfo_west_bottleneck_veh_000036" vType="car" speedFactor="1.02" vaporized=""/>
    <tripinfo id="west_bottleneck_veh_000030" depart="90.00" departLane="E9_0" departPos="5.10" departSpeed="12.94" departDelay="0.00" arrival="292.00" arrivalLane="E4_1" arrivalPos="136.40" arrivalSpeed="11.92" duration="202.00" routeLength="595.64" waitingTime="125.00" waitingCount="4" stopTime="0.00" timeLoss="153.41" rerouteNo="0" devices="tripinfo_west_bottleneck_veh_000030" vType="car" speedFactor="0.93" vaporized=""/>
    <tripinfo id="west_bottleneck_veh_000039" depart="120.00" departLane="E9_0" departPos="5.10" departSpeed="13.89" departDelay="0.00" arrival="293.00" arrivalLane="E4_1" arrivalPos="136.40" arrivalSpeed="12.98" duration="173.00" routeLength="595.64" waitingTime="95.00" waitingCount="4" stopTime="0.00" timeLoss="128.65" rerouteNo="0" devices="tripinfo_west_bottleneck_veh_000039" vType="car" speedFactor="1.10" vaporized=""/>
    <tripinfo id="west_bottleneck_veh_000047" depart="151.00" departLane="E9_1" departPos="5.10" departSpeed="10.21" departDelay="1.00" arrival="293.00" arrivalLane="E5_1" arrivalPos="136.40" arrivalSpeed="13.28" duration="142.00" routeLength="509.30" waitingTime="92.00" waitingCount="2" stopTime="0.00" timeLoss="105.15" rerouteNo="0" devices="tripinfo_west_bottleneck_veh_000047" vType="car" speedFactor="1.00" vaporized=""/>
    <tripinfo id="west_bottleneck_veh_000045" depart="122.00" departLane="E10_1" departPos="5.10" departSpeed="7.06" departDelay="2.00" arrival="295.00" arrivalLane="E4_1" arrivalPos="136.40" arrivalSpeed="13.19" duration="173.00" routeLength="613.81" waitingTime="97.00" waitingCount="3" stopTime="0.00" timeLoss="127.75" rerouteNo="0" devices="tripinfo_west_bottleneck_veh_000045" vType="car" speedFactor="1.04" vaporized=""/>
    <tripinfo id="west_bottleneck_veh_000052" depart="150.00" departLane="E10_2" departPos="5.10" departSpeed="13.89" departDelay="0.00" arrival="296.00" arrivalLane="E5_1" arrivalPos="136.40" arrivalSpeed="13.35" duration="146.00" routeLength="506.61" waitingTime="87.00" waitingCount="3" stopTime="0.00" timeLoss="108.48" rerouteNo="0" devices="tripinfo_west_bottleneck_veh_000052" vType="car" speedFactor="1.17" vaporized=""/>
    <tripinfo id="west_bottleneck_veh_000061" depart="180.00" departLane="E10_2" departPos="5.10" departSpeed="13.89" departDelay="0.00" arrival="297.00" arrivalLane="E5_1" arrivalPos="136.40" arrivalSpeed="13.19" duration="117.00" routeLength="506.61" waitingTime="59.00" waitingCount="3" stopTime="0.00" timeLoss="80.11" rerouteNo="0" devices="tripinfo_west_bottleneck_veh_000061" vType="car" speedFactor="1.08" vaporized=""/>
    <tripinfo id="west_bottleneck_veh_000070" depart="210.00" departLane="E10_2" departPos="5.10" departSpeed="13.89" departDelay="0.00" arrival="299.00" arrivalLane="E5_1" arrivalPos="136.40" arrivalSpeed="13.24" duration="89.00" routeLength="506.61" waitingTime="33.00" waitingCount="2" stopTime="0.00" timeLoss="51.87" rerouteNo="0" devices="tripinfo_west_bottleneck_veh_000070" vType="car" speedFactor="1.02" vaporized=""/>
    <tripinfo id="west_bottleneck_veh_000056" depart="181.00" departLane="E9_1" departPos="5.10" departSpeed="10.12" departDelay="1.00" arrival="301.00" arrivalLane="E5_1" arrivalPos="136.40" arrivalSpeed="13.70" duration="120.00" routeLength="509.30" waitingTime="66.00" waitingCount="2" stopTime="0.00" timeLoss="82.87" rerouteNo="0" devices="tripinfo_west_bottleneck_veh_000056" vType="car" speedFactor="1.00" vaporized=""/>
    <tripinfo id="west_bottleneck_veh_000065" depart="211.00" departLane="E9_1" departPos="5.10" departSpeed="10.53" departDelay="1.00" arrival="304.00" arrivalLane="E5_1" arrivalPos="136.40" arrivalSpeed="12.18" duration="93.00" routeLength="509.30" waitingTime="35.00" waitingCount="2" stopTime="0.00" timeLoss="53.15" rerouteNo="0" devices="tripinfo_west_bottleneck_veh_000065" vType="car" speedFactor="0.94" vaporized=""/>
    <tripinfo id="west_bottleneck_veh_000051" depart="150.00" departLane="E10_1" departPos="5.10" departSpeed="11.87" departDelay="0.00" arrival="337.00" arrivalLane="E19_0" arrivalPos="136.40" arrivalSpeed="10.71" duration="187.00" routeLength="488.44" waitingTime="125.00" waitingCount="3" stopTime="0.00" timeLoss="144.15" rerouteNo="0" devices="tripinfo_west_bottleneck_veh_000051" vType="car" speedFactor="0.85" vaporized=""/>
    <tripinfo id="west_bottleneck_veh_000019" depart="60.00" departLane="E9_1" departPos="5.10" departSpeed="13.00" departDelay="0.00" arrival="338.00" arrivalLane="E5_0" arrivalPos="136.40" arrivalSpeed="12.19" duration="278.00" routeLength="681.98" waitingTime="202.00" waitingCount="4" stopTime="0.00" timeLoss="222.71" rerouteNo="0" devices="tripinfo_west_bottleneck_veh_000019" vType="car" speedFactor="0.94" vaporized=""/>
    <tripinfo id="west_bottleneck_veh_000042" depart="120.00" departLane="E10_1" departPos="5.10" departSpeed="13.29" departDelay="0.00" arrival="339.00" arrivalLane="E19_0" arrivalPos="136.40" arrivalSpeed="12.83" duration="219.00" routeLength="488.44" waitingTime="146.00" waitingCount="3" stopTime="0.00" timeLoss="179.93" rerouteNo="0" devices="tripinfo_west_bottleneck_veh_000042" vType="car" speedFactor="0.96" vaporized=""/>
    <tripinfo id="west_bottleneck_veh_000028" depart="90.00" departLane="E9_1" departPos="5.10" departSpeed="13.18" departDelay="0.00" arrival="341.00" arrivalLane="E5_0" arrivalPos="136.40" arrivalSpeed="13.03" duration="251.00" routeLength="681.98" waitingTime="168.00" waitingCount="4" stopTime="0.00" timeLoss="195.50" rerouteNo="0" devices="tripinfo_west_bottleneck_veh_000028" vType="car" speedFactor="0.95" vaporized=""/>
    <tripinfo id="west_bottleneck_veh_000060" depart="180.00" departLane="E10_1" departPos="5.10" departSpeed="13.47" departDelay="0.00" arrival="341.00" arrivalLane="E19_0" arrivalPos="136.40" arrivalSpeed="12.84" duration="161.00" routeLength="488.44" waitingTime="99.00" waitingCount="2" stopTime="0.00" timeLoss="122.88" rerouteNo="0" devices="tripinfo_west_bottleneck_veh_000060" vType="car" speedFactor="0.97" vaporized=""/>
    <tripinfo id="west_bottleneck_veh_000037" depart="120.00" departLane="E9_1" departPos="5.10" departSpeed="13.52" departDelay="0.00" arrival="343.00" arrivalLane="E5_0" arrivalPos="136.40" arrivalSpeed="12.92" duration="223.00" routeLength="681.98" waitingTime="139.00" waitingCount="4" stopTime="0.00" timeLoss="169.48" rerouteNo="0" devices="tripinfo_west_bottleneck_veh_000037" vType="car" speedFactor="0.97" vaporized=""/>
    <tripinfo id="west_bottleneck_veh_000046" depart="150.00" departLane="E9_1" departPos="5.10" departSpeed="13.89" departDelay="0.00" arrival="345.00" arrivalLane="E5_0" arrivalPos="136.40" arrivalSpeed="12.81" duration="195.00" routeLength="681.98" waitingTime="123.00" waitingCount="3" stopTime="0.00" timeLoss="143.07" rerouteNo="0" devices="tripinfo_west_bottleneck_veh_000046" vType="car" speedFactor="1.09" vaporized=""/>
    <tripinfo id="west_bottleneck_veh_000071" depart="211.00" departLane="E10_1" departPos="5.10" departSpeed="11.34" departDelay="1.00" arrival="352.00" arrivalLane="-E17_0" arrivalPos="136.40" arrivalSpeed="13.19" duration="141.00" routeLength="383.93" waitingTime="100.00" waitingCount="2" stopTime="0.00" timeLoss="112.34" rerouteNo="0" devices="tripinfo_west_bottleneck_veh_000071" vType="car" speedFactor="1.02" vaporized=""/>
    <tripinfo id="west_bottleneck_veh_000080" depart="241.00" departLane="E10_1" departPos="5.10" departSpeed="11.00" departDelay="1.00" arrival="354.00" arrivalLane="-E17_0" arrivalPos="136.40" arrivalSpeed="13.26" duration="113.00" routeLength="383.93" waitingTime="68.00" waitingCount="2" stopTime="0.00" timeLoss="84.69" rerouteNo="0" devices="tripinfo_west_bottleneck_veh_000080" vType="car" speedFactor="1.09" vaporized=""/>
    <tripinfo id="west_bottleneck_veh_000050" depart="151.00" departLane="E9_0" departPos="5.10" departSpeed="8.86" departDelay="1.00" arrival="355.00" arrivalLane="-E18_1" arrivalPos="136.40" arrivalSpeed="11.56" duration="204.00" routeLength="383.93" waitingTime="151.00" waitingCount="3" stopTime="0.00" timeLoss="170.50" rerouteNo="0" devices="tripinfo_west_bottleneck_veh_000050" vType="car" speedFactor="0.85" vaporized=""/>
    <tripinfo id="west_bottleneck_veh_000059" depart="181.00" departLane="E9_0" departPos="5.10" departSpeed="9.73" departDelay="1.00" arrival="357.00" arrivalLane="-E18_1" arrivalPos="136.40" arrivalSpeed="12.88" duration="176.00" routeLength="383.93" waitingTime="123.00" waitingCount="3" stopTime="0.00" timeLoss="146.85" rerouteNo="0" devices="tripinfo_west_bottleneck_veh_000059" vType="car" speedFactor="1.02" vaporized=""/>
    <tripinfo id="west_bottleneck_veh_000089" depart="271.00" departLane="E10_1" departPos="5.10" departSpeed="10.44" departDelay="1.00" arrival="357.00" arrivalLane="-E17_0" arrivalPos="136.40" arrivalSpeed="13.54" duration="86.00" routeLength="383.93" waitingTime="40.00" waitingCount="1" stopTime="0.00" timeLoss="57.19" rerouteNo="0" devices="tripinfo_west_bottleneck_veh_000089" vType="car" speedFactor="1.01" vaporized=""/>
    <tripinfo id="west_bottleneck_veh_000068" depart="211.00" departLane="E9_0" departPos="5.10" departSpeed="8.76" departDelay="1.00" arrival="359.00" arrivalLane="-E18_1" arrivalPos="136.40" arrivalSpeed="12.28" duration="148.00" routeLength="383.93" waitingTime="90.00" waitingCount="3" stopTime="0.00" timeLoss="116.03" rerouteNo="0" devices="tripinfo_west_bottleneck_veh_000068" vType="car" speedFactor="0.91" vaporized=""/>
    <tripinfo id="west_bottleneck_veh_000076" depart="242.00" departLane="E9_1" departPos="5.10" departSpeed="5.18" departDelay="2.00" arrival="361.00" arrivalLane="-E14_2" arrivalPos="136.40" arrivalSpeed="12.50" duration="119.00" routeLength="399.41" waitingTime="74.00" waitingCount="2" stopTime="0.00" timeLoss="89.11" rerouteNo="0" devices="tripinfo_west_bottleneck_veh_000076" vType="car" speedFactor="0.98" vaporized=""/>
    <tripinfo id="west_bottleneck_veh_000085" depart="272.00" departLane="E9_1" departPos="5.10" departSpeed="6.82" departDelay="2.00" arrival="363.00" arrivalLane="-E14_2" arrivalPos="136.40" arrivalSpeed="12.73" duration="91.00" routeLength="399.41" waitingTime="45.00" waitingCount="2" stopTime="0.00" timeLoss="61.49" rerouteNo="0" devices="tripinfo_west_bottleneck_veh_000085" vType="car" speedFactor="1.15" vaporized=""/>
    <tripinfo id="west_bottleneck_veh_000094" depart="302.00" departLane="E9_1" departPos="5.10" departSpeed="8.33" departDelay="2.00" arrival="366.00" arrivalLane="-E14_2" arrivalPos="136.40" arrivalSpeed="12.75" duration="64.00" routeLength="399.41" waitingTime="14.00" waitingCount="2" stopTime="0.00" timeLoss="31.61" rerouteNo="0" devices="tripinfo_west_bottleneck_veh_000094" vType="car" speedFactor="0.92" vaporized=""/>