<?xml version="1.0" encoding="UTF-8"?>

<!-- generated on 2026-06-28T02:29:36.780050+08:00 by Eclipse SUMO sumo 1.27.0
<sumoConfiguration xmlns:xsi="http://www.w3.org/2001/XMLSchema-instance" xsi:noNamespaceSchemaLocation="http://sumo.dlr.de/xsd/sumoConfiguration.xsd">

    <input>
        <net-file value="test.net.xml"/>
        <route-files value="1.rou.xml"/>
    </input>

    <output>
        <tripinfo-output value="tripinfo_1.xml"/>
    </output>

    <time>
        <begin value="0"/>
        <end value="2500"/>
        <step-length value="1"/>
    </time>

    <processing>
        <time-to-teleport value="-1"/>
    </processing>

    <report>
        <verbose value="true"/>
        <duration-log.statistics value="true"/>
        <no-step-log value="true"/>
    </report>

    <gui_only>
        <quit-on-end value="false"/>
        <start value="false"/>
    </gui_only>

</sumoConfiguration>
-->

<tripinfos xmlns:xsi="http://www.w3.org/2001/XMLSchema-instance" xsi:noNamespaceSchemaLocation="http://sumo.dlr.de/xsd/tripinfo_file.xsd">
    <tripinfo id="veh_3" depart="4.00" departLane="E14_1" departPos="5.10" departSpeed="13.89" departDelay="0.76" arrival="35.00" arrivalLane="E19_1" arrivalPos="136.40" arrivalSpeed="13.58" duration="31.00" routeLength="402.10" waitingTime="0.00" waitingCount="0" stopTime="0.00" timeLoss="1.40" rerouteNo="0" devices="tripinfo_veh_3" vType="car" speedFactor="1.08" vaporized=""/>
    <tripinfo id="veh_10" depart="15.00" departLane="E9_0" departPos="5.10" departSpeed="13.89" departDelay="0.55" arrival="46.00" arrivalLane="-E18_1" arrivalPos="136.40" arrivalSpeed="12.95" duration="31.00" routeLength="383.93" waitingTime="0.00" waitingCount="0" stopTime="0.00" timeLoss="2.79" rerouteNo="0" devices="tripinfo_veh_10" vType="car" speedFactor="1.09" vaporized=""/>
    <tripinfo id="veh_11" depart="16.00" departLane="E10_1" departPos="5.10" departSpeed="13.89" departDelay="0.14" arrival="66.00" arrivalLane="E4_1" arrivalPos="136.40" arrivalSpeed="13.25" duration="50.00" routeLength="613.81" waitingTime="0.00" waitingCount="0" stopTime="0.00" timeLoss="4.92" rerouteNo="0" devices="tripinfo_veh_11" vType="car" speedFactor="1.03" vaporized=""/>
    <tripinfo id="veh_2" depart="3.00" departLane="E10_2" departPos="5.10" departSpeed="13.89" departDelay="0.27" arrival="68.00" arrivalLane="E5_1" arrivalPos="136.40" arrivalSpeed="13.36" duration="65.00" routeLength="506.61" waitingTime="19.00" waitingCount="1" stopTime="0.00" timeLoss="27.22" rerouteNo="0" devices="tripinfo_veh_2" vType="car" speedFactor="1.01" vaporized=""/>
    <tripinfo id="veh_4" depart="6.00" departLane="E10_2" departPos="5.10" departSpeed="13.89" departDelay="0.09" arrival="70.00" arrivalLane="E5_1" arrivalPos="136.40" arrivalSpeed="13.07" duration="64.00" routeLength="506.61" waitingTime="17.00" waitingCount="1" stopTime="0.00" timeLoss="26.54" rerouteNo="0" devices="tripinfo_veh_4" vType="car" speedFactor="1.03" vaporized=""/>
    <tripinfo id="veh_19" depart="27.00" departLane="E10_2" departPos="5.10" departSpeed="9.49" departDelay="1.36" arrival="72.00" arrivalLane="E5_1" arrivalPos="136.40" arrivalSpeed="13.15" duration="45.00" routeLength="506.61" waitingTime="0.00" waitingCount="0" stopTime="0.00" timeLoss="7.49" rerouteNo="0" devices="tripinfo_veh_19" vType="car" speedFactor="1.16" vaporized=""/>
    <tripinfo id="veh_5" depart="9.00" departLane="E10_2" departPos="5.10" departSpeed="11.54" departDelay="0.84" arrival="78.00" arrivalLane="E5_1" arrivalPos="136.40" arrivalSpeed="10.60" duration="69.00" routeLength="506.61" waitingTime="15.00" waitingCount="1" stopTime="0.00" timeLoss="23.51" rerouteNo="0" devices="tripinfo_veh_5" vType="car" speedFactor="0.83" vaporized=""/>
    <tripinfo id="veh_8" depart="14.00" departLane="E10_2" departPos="5.10" departSpeed="13.03" departDelay="0.10" arrival="79.00" arrivalLane="E5_1" arrivalPos="136.40" arrivalSpeed="12.12" duration="65.00" routeLength="506.61" waitingTime="13.00" waitingCount="1" stopTime="0.00" timeLoss="25.19" rerouteNo="0" devices="tripinfo_veh_8" vType="car" speedFactor="0.94" vaporized=""/>
    <tripinfo id="veh_12" depart="16.00" departLane="E10_2" departPos="5.10" departSpeed="13.89" departDelay="0.09" arrival="81.00" arrivalLane="E5_1" arrivalPos="136.40" arrivalSpeed="13.77" duration="65.00" routeLength="506.61" waitingTime="11.00" waitingCount="1" stopTime="0.00" timeLoss="27.34" rerouteNo="0" devices="tripinfo_veh_12" vType="car" speedFactor="1.05" vaporized=""/>
    <tripinfo id="veh_14" depart="19.00" departLane="E10_2" departPos="5.10" departSpeed="13.77" departDelay="0.54" arrival="83.00" arrivalLane="E5_1" arrivalPos="136.40" arrivalSpeed="13.37" duration="64.00" routeLength="506.61" waitingTime="10.00" waitingCount="1" stopTime="0.00" timeLoss="26.00" rerouteNo="0" devices="tripinfo_veh_14" vType="car" speedFactor="0.99" vaporized=""/>
    <tripinfo id="veh_16" depart="21.00" departLane="E10_2" departPos="5.10" departSpeed="12.20" departDelay="0.47" arrival="85.00" arrivalLane="E5_1" arrivalPos="136.40" arrivalSpeed="11.72" duration="64.00" routeLength="506.61" waitingTime="9.00" waitingCount="1" stopTime="0.00" timeLoss="21.22" rerouteNo="0" devices="tripinfo_veh_16" vType="car" speedFactor="0.88" vaporized=""/>
    <tripinfo id="veh_18" depart="26.00" departLane="E10_2" departPos="5.10" departSpeed="13.00" departDelay="0.38" arrival="87.00" arrivalLane="E5_1" arrivalPos="136.40" arrivalSpeed="12.58" duration="61.00" routeLength="506.61" waitingTime="7.00" waitingCount="1" stopTime="0.00" timeLoss="20.49" rerouteNo="0" devices="tripinfo_veh_18" vType="car" speedFactor="0.94" vaporized=""/>
    <tripinfo id="veh_0" depart="3.00" departLane="-E2_0" departPos="5.10" departSpeed="13.89" departDelay="0.96" arrival="104.00" arrivalLane="-E17_0" arrivalPos="136.40" arrivalSpeed="13.26" duration="101.00" routeLength="577.47" waitingTime="43.00" waitingCount="2" stopTime="0.00" timeLoss="57.59" rerouteNo="0" devices="tripinfo_veh_0" vType="car" speedFactor="1.06" vaporized=""/>
    <tripinfo id="veh_1" depart="3.00" departLane="-E5_1" departPos="5.10" departSpeed="13.03" departDelay="0.91" arrival="106.00" arrivalLane="-E18_1" arrivalPos="136.40" arrivalSpeed="12.44" duration="103.00" routeLength="613.81" waitingTime="41.00" waitingCount="2" stopTime="0.00" timeLoss="54.46" rerouteNo="0" devices="tripinfo_veh_1" vType="car" speedFactor="0.94" vaporized=""/>
    <tripinfo id="veh_36" depart="67.00" departLane="-E5_1" departPos="5.10" departSpeed="13.52" departDelay="0.61" arrival="108.00" arrivalLane="E19_1" arrivalPos="136.40" arrivalSpeed="13.20" duration="41.00" routeLength="506.61" waitingTime="0.00" waitingCount="0" stopTime="0.00" timeLoss="2.84" rerouteNo="0" devices="tripinfo_veh_36" vType="car" speedFactor="0.97" vaporized=""/>
    <tripinfo id="veh_37" depart="69.00" departLane="E9_0" departPos="5.10" departSpeed="13.89" departDelay="0.69" arrival="112.00" arrivalLane="-E18_1" arrivalPos="136.40" arrivalSpeed="13.83" duration="43.00" routeLength="383.93" waitingTime="8.00" waitingCount="1" stopTime="0.00" timeLoss="14.29" rerouteNo="0" devices="tripinfo_veh_37" vType="car" speedFactor="1.18" vaporized=""/>
    <tripinfo id="veh_28" depart="44.00" departLane="E14_1" departPos="5.10" departSpeed="13.89" departDelay="0.24" arrival="113.00" arrivalLane="E19_1" arrivalPos="136.40" arrivalSpeed="12.97" duration="69.00" routeLength="402.10" waitingTime="32.00" waitingCount="1" stopTime="0.00" timeLoss="39.26" rerouteNo="0" devices="tripinfo_veh_28" vType="car" speedFactor="1.13" vaporized=""/>
    <tripinfo id="veh_31" depart="52.00" departLane="-E2_1" departPos="5.10" departSpeed="13.89" departDelay="0.48" arrival="113.00" arrivalLane="E4_2" arrivalPos="136.40" arrivalSpeed="13.17" duration="61.00" routeLength="399.41" waitingTime="24.00" waitingCount="1" stopTime="0.00" timeLoss="31.74" rerouteNo="0" devices="tripinfo_veh_31" vType="car" speedFactor="1.15" vaporized=""/>
    <tripinfo id="veh_21" depart="32.00" departLane="E10_1" departPos="5.10" departSpeed="13.89" departDelay="0.69" arrival="114.00" arrivalLane="-E17_0" arrivalPos="136.40" arrivalSpeed="13.10" duration="82.00" routeLength="383.93" waitingTime="46.00" waitingCount="1" stopTime="0.00" timeLoss="53.92" rerouteNo="0" devices="tripinfo_veh_21" vType="car" speedFactor="1.01" vaporized=""/>
    <tripinfo id="veh_30" depart="49.00" departLane="E14_1" departPos="5.10" departSpeed="13.89" departDelay="0.09" arrival="115.00" arrivalLane="E19_1" arrivalPos="136.40" arrivalSpeed="12.86" duration="66.00" routeLength="402.10" waitingTime="30.00" waitingCount="1" stopTime="0.00" timeLoss="36.28" rerouteNo="0" devices="tripinfo_veh_30" vType="car" speedFactor="1.18" vaporized=""/>
    <tripinfo id="veh_41" depart="77.00" departLane="E14_1" departPos="5.10" departSpeed="13.29" departDelay="0.48" arrival="118.00" arrivalLane="E19_1" arrivalPos="136.40" arrivalSpeed="12.26" duration="41.00" routeLength="402.10" waitingTime="2.00" waitingCount="1" stopTime="0.00" timeLoss="10.01" rerouteNo="0" devices="tripinfo_veh_41" vType="car" speedFactor="0.96" vaporized=""/>
    <tripinfo id="veh_38" depart="73.00" departLane="E10_1" departPos="5.10" departSpeed="13.89" departDelay="0.73" arrival="119.00" arrivalLane="-E17_0" arrivalPos="136.40" arrivalSpeed="13.04" duration="46.00" routeLength="383.93" waitingTime="8.00" waitingCount="1" stopTime="0.00" timeLoss="17.45" rerouteNo="0" devices="tripinfo_veh_38" vType="car" speedFactor="1.10" vaporized=""/>
    <tripinfo id="veh_40" depart="77.00" departLane="E10_1" departPos="5.10" departSpeed="13.89" departDelay="0.57" arrival="122.00" arrivalLane="-E17_0" arrivalPos="136.40" arrivalSpeed="12.75" duration="45.00" routeLength="383.93" waitingTime="5.00" waitingCount="1" stopTime="0.00" timeLoss="16.22" rerouteNo="0" devices="tripinfo_veh_40" vType="car" speedFactor="1.03" vaporized=""/>
    <tripinfo id="veh_54" depart="92.00" departLane="E14_1" departPos="5.10" departSpeed="13.89" departDelay="0.16" arrival="123.00" arrivalLane="E19_1" arrivalPos="136.40" arrivalSpeed="13.66" duration="31.00" routeLength="402.10" waitingTime="0.00" waitingCount="0" stopTime="0.00" timeLoss="1.52" rerouteNo="0" devices="tripinfo_veh_54" vType="car" speedFactor="1.00" vaporized=""/>
    <tripinfo id="veh_56" depart="95.00" departLane="-E2_1" departPos="5.10" departSpeed="12.49" departDelay="0.91" arrival="131.00" arrivalLane="E4_2" arrivalPos="136.40" arrivalSpeed="11.46" duration="36.00" routeLength="399.41" waitingTime="0.00" waitingCount="0" stopTime="0.00" timeLoss="2.68" rerouteNo="0" devices="tripinfo_veh_56" vType="car" speedFactor="0.90" vaporized=""/>
    <tripinfo id="veh_25" depart="40.00" departLane="E10_1" departPos="5.10" departSpeed="12.12" departDelay="0.40" arrival="150.00" arrivalLane="E19_0" arrivalPos="136.40" arrivalSpeed="11.72" duration="110.00" routeLength="488.44" waitingTime="55.00" waitingCount="2" stopTime="0.00" timeLoss="67.77" rerouteNo="0" devices="tripinfo_veh_25" vType="car" speedFactor="0.87" vaporized=""/>
    <tripinfo id="veh_27" depart="41.00" departLane="E9_1" departPos="5.10" departSpeed="3.63" departDelay="1.00" arrival="151.00" arrivalLane="-E14_2" arrivalPos="136.40" arrivalSpeed="12.68" duration="110.00" routeLength="399.41" waitingTime="56.00" waitingCount="2" stopTime="0.00" timeLoss="78.33" rerouteNo="0" devices="tripinfo_veh_27" vType="car" speedFactor="0.95" vaporized=""/>
    <tripinfo id="veh_50" depart="84.00" departLane="E14_0" departPos="5.10" departSpeed="11.87" departDelay="0.86" arrival="151.00" arrivalLane="-E9_1" arrivalPos="136.40" arrivalSpeed="10.92" duration="67.00" routeLength="383.93" waitingTime="25.00" waitingCount="1" stopTime="0.00" timeLoss="33.45" rerouteNo="0" devices="tripinfo_veh_50" vType="car" speedFactor="0.85" vaporized=""/>
    <tripinfo id="veh_29" depart="46.00" departLane="E10_1" departPos="5.10" departSpeed="12.94" departDelay="0.39" arrival="152.00" arrivalLane="E19_0" arrivalPos="136.40" arrivalSpeed="12.02" duration="106.00" routeLength="488.44" waitingTime="50.00" waitingCount="2" stopTime="0.00" timeLoss="66.18" rerouteNo="0" devices="tripinfo_veh_29" vType="car" speedFactor="0.93" vaporized=""/>
    <tripinfo id="veh_64" depart="117.00" departLane="E14_2" departPos="5.10" departSpeed="13.02" departDelay="0.19" arrival="152.00" arrivalLane="E5_1" arrivalPos="136.40" arrivalSpeed="12.66" duration="35.00" routeLength="399.41" waitingTime="0.00" waitingCount="0" stopTime="0.00" timeLoss="2.71" rerouteNo="0" devices="tripinfo_veh_64" vType="car" speedFactor="0.94" vaporized=""/>
    <tripinfo id="veh_23" depart="33.00" departLane="E10_2" departPos="5.10" departSpeed="12.36" departDelay="0.52" arrival="160.00" arrivalLane="E5_1" arrivalPos="136.40" arrivalSpeed="11.75" duration="127.00" routeLength="506.61" waitingTime="74.00" waitingCount="2" stopTime="0.00" timeLoss="85.24" rerouteNo="0" devices="tripinfo_veh_23" vType="car" speedFactor="0.89" vaporized=""/>
    <tripinfo id="veh_47" depart="80.00" departLane="E10_1" departPos="5.10" departSpeed="12.51" departDelay="0.71" arrival="160.00" arrivalLane="E4_1" arrivalPos="136.40" arrivalSpeed="12.47" duration="80.00" routeLength="613.81" waitingTime="14.00" waitingCount="2" stopTime="0.00" timeLoss="29.61" rerouteNo="0" devices="tripinfo_veh_47" vType="car" speedFactor="0.90" vaporized=""/>
    <tripinfo id="veh_61" depart="110.00" departLane="E10_1" departPos="5.10" departSpeed="13.89" departDelay="0.83" arrival="161.00" arrivalLane="E4_1" arrivalPos="136.40" arrivalSpeed="13.63" duration="51.00" routeLength="613.81" waitingTime="0.00" waitingCount="0" stopTime="0.00" timeLoss="6.44" rerouteNo="0" devices="tripinfo_veh_61" vType="car" speedFactor="1.12" vaporized=""/>
    <tripinfo id="veh_35" depart="63.00" departLane="E10_2" departPos="5.10" departSpeed="13.89" departDelay="0.15" arrival="162.00" arrivalLane="E5_1" arrivalPos="136.40" arrivalSpeed="13.19" duration="99.00" routeLength="506.61" waitingTime="45.00" waitingCount="2" stopTime="0.00" timeLoss="61.46" rerouteNo="0" devices="tripinfo_veh_35" vType="car" speedFactor="1.02" vaporized=""/>
    <tripinfo id="veh_39" depart="74.00" departLane="E14_2" departPos="5.10" departSpeed="12.51" departDelay="0.01" arrival="162.00" arrivalLane="E4_2" arrivalPos="136.40" arrivalSpeed="11.93" duration="88.00" routeLength="485.75" waitingTime="33.00" waitingCount="2" stopTime="0.00" timeLoss="46.82" rerouteNo="0" devices="tripinfo_veh_39" vType="car" speedFactor="0.90" vaporized=""/>
    <tripinfo id="veh_51" depart="84.00" departLane="E14_2" departPos="5.10" departSpeed="13.89" departDelay="0.39" arrival="163.00" arrivalLane="E4_2" arrivalPos="136.40" arrivalSpeed="12.83" duration="79.00" routeLength="485.75" waitingTime="28.00" waitingCount="1" stopTime="0.00" timeLoss="42.98" rerouteNo="0" devices="tripinfo_veh_51" vType="car" speedFactor="1.17" vaporized=""/>
    <tripinfo id="veh_48" depart="82.00" departLane="E10_2" departPos="5.10" departSpeed="12.18" departDelay="0.69" arrival="164.00" arrivalLane="E5_1" arrivalPos="136.40" arrivalSpeed="12.05" duration="82.00" routeLength="506.61" waitingTime="27.00" waitingCount="1" stopTime="0.00" timeLoss="39.58" rerouteNo="0" devices="tripinfo_veh_48" vType="car" speedFactor="0.88" vaporized=""/>
    <tripinfo id="veh_53" depart="90.00" departLane="E10_2" departPos="5.10" departSpeed="13.89" departDelay="0.25" arrival="166.00" arrivalLane="E5_1" arrivalPos="136.40" arrivalSpeed="13.53" duration="76.00" routeLength="506.61" waitingTime="28.00" waitingCount="1" stopTime="0.00" timeLoss="38.54" rerouteNo="0" devices="tripinfo_veh_53" vType="car" speedFactor="1.10" vaporized=""/>
    <tripinfo id="veh_63" depart="114.00" departLane="E10_2" departPos="5.10" departSpeed="13.71" departDelay="0.89" arrival="168.00" arrivalLane="E5_1" arrivalPos="136.40" arrivalSpeed="13.19" duration="54.00" routeLength="506.61" waitingTime="5.00" waitingCount="1" stopTime="0.00" timeLoss="15.89" rerouteNo="0" devices="tripinfo_veh_63" vType="car" speedFactor="0.99" vaporized=""/>
    <tripinfo id="veh_32" depart="54.00" departLane="E9_1" departPos="5.10" departSpeed="13.89" departDelay="0.94" arrival="169.00" arrivalLane="E5_1" arrivalPos="136.40" arrivalSpeed="13.65" duration="115.00" routeLength="509.30" waitingTime="50.00" waitingCount="3" stopTime="0.00" timeLoss="78.26" rerouteNo="0" devices="tripinfo_veh_32" vType="car" speedFactor="1.01" vaporized=""/>
    <tripinfo id="veh_67" depart="121.00" departLane="E10_2" departPos="5.10" departSpeed="12.70" departDelay="0.61" arrival="172.00" arrivalLane="E5_1" arrivalPos="136.40" arrivalSpeed="12.40" duration="51.00" routeLength="506.61" waitingTime="0.00" waitingCount="0" stopTime="0.00" timeLoss="9.56" rerouteNo="0" devices="tripinfo_veh_67" vType="car" speedFactor="0.91" vaporized=""/>
    <tripinfo id="veh_6" depart="13.00" departLane="E9_1" departPos="5.10" departSpeed="13.89" departDelay="0.38" arrival="193.00" arrivalLane="E5_0" arrivalPos="136.40" arrivalSpeed="12.89" duration="180.00" routeLength="681.98" waitingTime="101.00" waitingCount="5" stopTime="0.00" timeLoss="128.95" rerouteNo="0" devices="tripinfo_veh_6" vType="car" speedFactor="1.05" vaporized=""/>
    <tripinfo id="veh_42" depart="78.00" departLane="-E5_1" departPos="5.10" departSpeed="13.89" departDelay="0.96" arrival="195.00" arrivalLane="-E18_1" arrivalPos="136.40" arrivalSpeed="13.13" duration="117.00" routeLength="613.81" waitingTime="59.00" waitingCount="2" stopTime="0.00" timeLoss="71.87" rerouteNo="0" devices="tripinfo_veh_42" vType="car" speedFactor="1.09" vaporized=""/>
    <tripinfo id="veh_73" depart="133.00" departLane="-E5_1" departPos="5.10" departSpeed="13.89" departDelay="0.09" arrival="195.00" arrivalLane="E19_1" arrivalPos="136.40" arrivalSpeed="12.64" duration="62.00" routeLength="506.61" waitingTime="14.00" waitingCount="1" stopTime="0.00" timeLoss="24.84" rerouteNo="0" devices="tripinfo_veh_73" vType="car" speedFactor="1.06" vaporized=""/>
    <tripinfo id="veh_7" depart="14.00" departLane="E9_1" departPos="5.10" departSpeed="10.23" departDelay="1.20" arrival="197.00" arrivalLane="E5_0" arrivalPos="136.40" arrivalSpeed="12.22" duration="183.00" routeLength="681.98" waitingTime="95.00" waitingCount="5" stopTime="0.00" timeLoss="124.53" rerouteNo="0" devices="tripinfo_veh_7" vType="car" speedFactor="0.89" vaporized=""/>
    <tripinfo id="veh_57" depart="97.00" departLane="-E5_1" departPos="5.10" departSpeed="13.89" departDelay="0.30" arrival="197.00" arrivalLane="-E18_1" arrivalPos="136.40" arrivalSpeed="13.57" duration="100.00" routeLength="613.81" waitingTime="39.00" waitingCount="2" stopTime="0.00" timeLoss="54.90" rerouteNo="0" devices="tripinfo_veh_57" vType="car" speedFactor="1.14" vaporized=""/>
    <tripinfo id="veh_62" depart="111.00" departLane="-E5_1" departPos="5.10" departSpeed="13.89" departDelay="0.20" arrival="199.00" arrivalLane="-E18_1" arrivalPos="136.40" arrivalSpeed="12.94" duration="88.00" routeLength="613.81" waitingTime="26.00" waitingCount="2" stopTime="0.00" timeLoss="42.48" rerouteNo="0" devices="tripinfo_veh_62" vType="car" speedFactor="1.02" vaporized=""/>
    <tripinfo id="veh_9" depart="15.00" departLane="E9_1" departPos="5.10" departSpeed="7.01" departDelay="1.04" arrival="201.00" arrivalLane="E5_0" arrivalPos="136.40" arrivalSpeed="11.66" duration="186.00" routeLength="681.98" waitingTime="88.00" waitingCount="4" stopTime="0.00" timeLoss="124.67" rerouteNo="0" devices="tripinfo_veh_9" vType="car" speedFactor="0.86" vaporized=""/>
    <tripinfo id="veh_13" depart="17.00" departLane="E9_1" departPos="5.10" departSpeed="8.14" departDelay="0.64" arrival="202.00" arrivalLane="E5_0" arrivalPos="136.40" arrivalSpeed="12.99" duration="185.00" routeLength="681.98" waitingTime="87.00" waitingCount="4" stopTime="0.00" timeLoss="134.47" rerouteNo="0" devices="tripinfo_veh_13" vType="car" speedFactor="1.12" vaporized=""/>
    <tripinfo id="veh_75" depart="137.00" departLane="E9_0" departPos="5.10" departSpeed="13.68" departDelay="0.96" arrival="203.00" arrivalLane="-E18_1" arrivalPos="136.40" arrivalSpeed="12.46" duration="66.00" routeLength="383.93" waitingTime="29.00" waitingCount="1" stopTime="0.00" timeLoss="36.51" rerouteNo="0" devices="tripinfo_veh_75" vType="car" speedFactor="0.98" vaporized=""/>
    <tripinfo id="veh_79" depart="144.00" departLane="E9_0" departPos="5.10" departSpeed="13.89" departDelay="0.63" arrival="205.00" arrivalLane="-E18_1" arrivalPos="136.40" arrivalSpeed="12.88" duration="61.00" routeLength="383.93" waitingTime="24.00" waitingCount="1" stopTime="0.00" timeLoss="32.19" rerouteNo="0" devices="tripinfo_veh_79" vType="car" speedFactor="1.09" vaporized=""/>
    <tripinfo id="veh_81" depart="146.00" departLane="-E2_1" departPos="5.10" departSpeed="13.86" departDelay="0.37" arrival="205.00" arrivalLane="E4_2" arrivalPos="136.40" arrivalSpeed="13.60" duration="59.00" routeLength="399.41" waitingTime="19.00" waitingCount="1" stopTime="0.00" timeLoss="28.89" rerouteNo="0" devices="tripinfo_veh_81" vType="car" speedFactor="1.00" vaporized=""/>
    <tripinfo id="veh_84" depart="153.00" departLane="E10_1" departPos="5.10" departSpeed="13.89" departDelay="0.03" arrival="206.00" arrivalLane="-E17_0" arrivalPos="136.40" arrivalSpeed="13.41" duration="53.00" routeLength="383.93" waitingTime="14.00" waitingCount="1" stopTime="0.00" timeLoss="24.75" rerouteNo="0" devices="tripinfo_veh_84" vType="car" speedFactor="1.15" vaporized=""/>
    <tripinfo id="veh_85" depart="154.00" departLane="-E2_1" departPos="5.10" departSpeed="13.56" departDelay="0.53" arrival="207.00" arrivalLane="E4_2" arrivalPos="136.40" arrivalSpeed="13.01" duration="53.00" routeLength="399.41" waitingTime="13.00" waitingCount="1" stopTime="0.00" timeLoss="22.66" rerouteNo="0" devices="tripinfo_veh_85" vType="car" speedFactor="0.98" vaporized=""/>
    <tripinfo id="veh_98" depart="195.00" departLane="-E2_1" departPos="5.10" departSpeed="13.89" departDelay="0.57" arrival="226.00" arrivalLane="E4_2" arrivalPos="136.40" arrivalSpeed="13.31" duration="31.00" routeLength="399.41" waitingTime="0.00" waitingCount="0" stopTime="0.00" timeLoss="1.84" rerouteNo="0" devices="tripinfo_veh_98" vType="car" speedFactor="1.12" vaporized=""/>
    <tripinfo id="veh_77" depart="143.00" departLane="E10_1" departPos="5.10" departSpeed="13.64" departDelay="0.81" arrival="239.00" arrivalLane="E19_0" arrivalPos="136.40" arrivalSpeed="12.85" duration="96.00" routeLength="488.44" waitingTime="44.00" waitingCount="2" stopTime="0.00" timeLoss="58.18" rerouteNo="0" devices="tripinfo_veh_77" vType="car" speedFactor="0.98" vaporized=""/>
    <tripinfo id="veh_88" depart="168.00" departLane="E14_2" departPos="5.10" departSpeed="13.89" departDelay="0.91" arrival="239.00" arrivalLane="E5_1" arrivalPos="136.40" arrivalSpeed="13.19" duration="71.00" routeLength="399.41" waitingTime="26.00" waitingCount="2" stopTime="0.00" timeLoss="41.46" rerouteNo="0" devices="tripinfo_veh_88" vType="car" speedFactor="1.01" vaporized=""/>
    <tripinfo id="veh_91" depart="170.00" departLane="-E2_0" departPos="5.10" departSpeed="12.39" departDelay="0.60" arrival="239.00" arrivalLane="-E14_0" arrivalPos="136.40" arrivalSpeed="11.28" duration="69.00" routeLength="365.76" waitingTime="27.00" waitingCount="1" stopTime="0.00" timeLoss="38.11" rerouteNo="0" devices="tripinfo_veh_91" vType="car" speedFactor="0.89" vaporized=""/>
    <tripinfo id="veh_66" depart="121.00" departLane="E14_0" departPos="5.10" departSpeed="12.60" departDelay="0.68" arrival="241.00" arrivalLane="-E9_1" arrivalPos="136.40" arrivalSpeed="12.03" duration="120.00" routeLength="383.93" waitingTime="78.00" waitingCount="2" stopTime="0.00" timeLoss="88.42" rerouteNo="0" devices="tripinfo_veh_66" vType="car" speedFactor="0.91" vaporized=""/>
    <tripinfo id="veh_95" depart="175.00" departLane="E14_2" departPos="5.10" departSpeed="13.89" departDelay="0.27" arrival="241.00" arrivalLane="E5_1" arrivalPos="136.40" arrivalSpeed="13.64" duration="66.00" routeLength="399.41" waitingTime="24.00" waitingCount="1" stopTime="0.00" timeLoss="36.86" rerouteNo="0" devices="tripinfo_veh_95" vType="car" speedFactor="1.06" vaporized=""/>
    <tripinfo id="veh_86" depart="166.00" departLane="E14_0" departPos="5.10" departSpeed="13.89" departDelay="0.52" arrival="243.00" arrivalLane="-E9_1" arrivalPos="136.40" arrivalSpeed="13.74" duration="77.00" routeLength="383.93" waitingTime="34.00" waitingCount="2" stopTime="0.00" timeLoss="48.08" rerouteNo="0" devices="tripinfo_veh_86" vType="car" speedFactor="1.00" vaporized=""/>
    <tripinfo id="veh_69" depart="122.00" departLane="E14_2" departPos="5.10" departSpeed="13.89" departDelay="0.23" arrival="247.00" arrivalLane="E4_2" arrivalPos="136.40" arrivalSpeed="13.86" duration="125.00" routeLength="485.75" waitingTime="75.00" waitingCount="2" stopTime="0.00" timeLoss="88.61" rerouteNo="0" devices="tripinfo_veh_69" vType="car" speedFactor="1.02" vaporized=""/>
    <tripinfo id="veh_71" depart="128.00" departLane="E10_2" departPos="5.10" departSpeed="13.51" departDelay="0.03" arrival="249.00" arrivalLane="E5_1" arrivalPos="136.40" arrivalSpeed="13.26" duration="121.00" routeLength="506.61" waitingTime="70.00" waitingCount="2" stopTime="0.00" timeLoss="82.26" rerouteNo="0" devices="tripinfo_veh_71" vType="car" speedFactor="0.97" vaporized=""/>
    <tripinfo id="veh_76" depart="141.00" departLane="E10_2" departPos="5.10" departSpeed="13.89" departDelay="0.04" arrival="250.00" arrivalLane="E5_1" arrivalPos="136.40" arrivalSpeed="13.73" duration="109.00" routeLength="506.61" waitingTime="57.00" waitingCount="2" stopTime="0.00" timeLoss="71.96" rerouteNo="0" devices="tripinfo_veh_76" vType="car" speedFactor="1.03" vaporized=""/>
    <tripinfo id="veh_60" depart="128.00" departLane="E9_1" departPos="5.10" departSpeed="2.55" departDelay="20.87" arrival="251.00" arrivalLane="-E14_2" arrivalPos="136.40" arrivalSpeed="13.77" duration="123.00" routeLength="399.41" waitingTime="42.00" waitingCount="2" stopTime="0.00" timeLoss="93.24" rerouteNo="0" devices="tripinfo_veh_60" vType="car" speedFactor="1.08" vaporized=""/>
    <tripinfo id="veh_74" depart="136.00" departLane="E14_2" departPos="5.10" departSpeed="13.27" departDelay="0.96" arrival="252.00" arrivalLane="E4_2" arrivalPos="136.40" arrivalSpeed="12.99" duration="116.00" routeLength="485.75" waitingTime="61.00" waitingCount="2" stopTime="0.00" timeLoss="77.15" rerouteNo="0" devices="tripinfo_veh_74" vType="car" speedFactor="0.96" vaporized=""/>
    <tripinfo id="veh_94" depart="175.00" departLane="E10_2" departPos="5.10" departSpeed="3.18" departDelay="1.23" arrival="252.00" arrivalLane="E5_1" arrivalPos="136.40" arrivalSpeed="13.47" duration="77.00" routeLength="506.61" waitingTime="19.00" waitingCount="2" stopTime="0.00" timeLoss="39.99" rerouteNo="0" devices="tripinfo_veh_94" vType="car" speedFactor="1.09" vaporized=""/>
    <tripinfo id="veh_78" depart="143.00" departLane="E10_2" departPos="5.10" departSpeed="13.89" departDelay="0.19" arrival="255.00" arrivalLane="E5_1" arrivalPos="136.40" arrivalSpeed="12.99" duration="112.00" routeLength="506.61" waitingTime="56.00" waitingCount="3" stopTime="0.00" timeLoss="74.12" rerouteNo="0" devices="tripinfo_veh_78" vType="car" speedFactor="1.01" vaporized=""/>
    <tripinfo id="veh_103" depart="205.00" departLane="E10_2" departPos="5.10" departSpeed="10.07" departDelay="0.23" arrival="257.00" arrivalLane="E5_1" arrivalPos="136.40" arrivalSpeed="12.91" duration="52.00" routeLength="506.61" waitingTime="3.00" waitingCount="2" stopTime="0.00" timeLoss="12.85" rerouteNo="0" devices="tripinfo_veh_103" vType="car" speedFactor="0.95" vaporized=""/>
    <tripinfo id="veh_87" depart="167.00" departLane="E10_2" departPos="5.10" departSpeed="13.89" departDelay="0.10" arrival="259.00" arrivalLane="E5_1" arrivalPos="136.40" arrivalSpeed="13.04" duration="92.00" routeLength="506.61" waitingTime="34.00" waitingCount="3" stopTime="0.00" timeLoss="54.51" rerouteNo="0" devices="tripinfo_veh_87" vType="car" speedFactor="1.04" vaporized=""/>
    <tripinfo id="veh_92" depart="173.00" departLane="E10_2" departPos="5.10" departSpeed="11.58" departDelay="0.46" arrival="265.00" arrivalLane="E5_1" arrivalPos="136.40" arrivalSpeed="10.29" duration="92.00" routeLength="506.61" waitingTime="26.00" waitingCount="1" stopTime="0.00" timeLoss="47.10" rerouteNo="0" devices="tripinfo_veh_92" vType="car" speedFactor="0.83" vaporized=""/>
    <tripinfo id="veh_93" depart="174.00" departLane="E10_2" departPos="5.10" departSpeed="8.85" departDelay="0.36" arrival="267.00" arrivalLane="E5_1" arrivalPos="136.40" arrivalSpeed="12.20" duration="93.00" routeLength="506.61" waitingTime="26.00" waitingCount="1" stopTime="0.00" timeLoss="52.03" rerouteNo="0" devices="tripinfo_veh_93" vType="car" speedFactor="0.92" vaporized=""/>
    <tripinfo id="veh_102" depart="204.00" departLane="E10_2" departPos="5.10" departSpeed="13.45" departDelay="0.77" arrival="269.00" arrivalLane="E5_1" arrivalPos="136.40" arrivalSpeed="13.24" duration="65.00" routeLength="506.61" waitingTime="14.00" waitingCount="2" stopTime="0.00" timeLoss="26.13" rerouteNo="0" devices="tripinfo_veh_102" vType="car" speedFactor="0.97" vaporized=""/>
    <tripinfo id="veh_15" depart="21.00" departLane="E9_1" departPos="5.10" departSpeed="12.87" departDelay="0.97" arrival="284.00" arrivalLane="E5_0" arrivalPos="136.40" arrivalSpeed="11.79" duration="263.00" routeLength="681.98" waitingTime="175.00" waitingCount="5" stopTime="0.00" timeLoss="207.26" rerouteNo="0" devices="tripinfo_veh_15" vType="car" speedFactor="0.93" vaporized=""/>