<?xml version="1.0" encoding="UTF-8"?>

<!-- generated on 2026-07-17 17:12:05 by Eclipse SUMO sumo Version 1.19.0
<configuration xmlns:xsi="http://www.w3.org/2001/XMLSchema-instance" xsi:noNamespaceSchemaLocation="http://sumo.dlr.de/xsd/sumoConfiguration.xsd">

    <input>
        <net-file value="test_random_offsets_seed20260708.net.xml"/>
        <route-files value="heavy_all_no_change.rou.xml"/>
    </input>

    <output>
        <tripinfo-output value="tripinfo_heavy_all_no_change.xml"/>
    </output>

    <time>
        <begin value="0"/>
    </time>

    <report>
        <duration-log.statistics value="true"/>
        <no-step-log value="true"/>
    </report>

</configuration>
-->

<tripinfos xmlns:xsi="http://www.w3.org/2001/XMLSchema-instance" xsi:noNamespaceSchemaLocation="http://sumo.dlr.de/xsd/tripinfo_file.xsd">
    <tripinfo id="heavy_all_veh_000012" depart="0.00" departLane="E14_1" departPos="5.10" departSpeed="13.89" departDelay="0.00" arrival="31.00" arrivalLane="E19_1" arrivalPos="136.40" arrivalSpeed="13.58" duration="31.00" routeLength="402.10" waitingTime="0.00" waitingCount="0" stopTime="0.00" timeLoss="1.51" rerouteNo="0" devices="tripinfo_heavy_all_veh_000012" vType="car" speedFactor="1.03" vaporized=""/>
    <tripinfo id="heavy_all_veh_000031" depart="0.00" departLane="-E19_0" departPos="5.10" departSpeed="13.89" departDelay="0.00" arrival="31.00" arrivalLane="E4_1" arrivalPos="136.40" arrivalSpeed="12.81" duration="31.00" routeLength="383.93" waitingTime="0.00" waitingCount="0" stopTime="0.00" timeLoss="2.86" rerouteNo="0" devices="tripinfo_heavy_all_veh_000031" vType="car" speedFactor="1.18" vaporized=""/>
    <tripinfo id="heavy_all_veh_000032" depart="0.00" departLane="-E19_1" departPos="5.10" departSpeed="13.89" departDelay="0.00" arrival="39.00" arrivalLane="E5_1" arrivalPos="136.40" arrivalSpeed="12.60" duration="39.00" routeLength="491.13" waitingTime="0.00" waitingCount="0" stopTime="0.00" timeLoss="3.16" rerouteNo="0" devices="tripinfo_heavy_all_veh_000032" vType="car" speedFactor="1.15" vaporized=""/>
    <tripinfo id="heavy_all_veh_000022" depart="0.00" departLane="-E4_2" departPos="5.10" departSpeed="13.89" departDelay="0.00" arrival="43.00" arrivalLane="E3_2" arrivalPos="136.40" arrivalSpeed="12.95" duration="43.00" routeLength="292.21" waitingTime="16.00" waitingCount="1" stopTime="0.00" timeLoss="21.27" rerouteNo="0" devices="tripinfo_heavy_all_veh_000022" vType="car" speedFactor="1.01" vaporized=""/>
    <tripinfo id="heavy_all_veh_000030" depart="0.00" departLane="-E19_2" departPos="5.10" departSpeed="12.94" departDelay="0.00" arrival="58.00" arrivalLane="-E17_1" arrivalPos="136.40" arrivalSpeed="11.84" duration="58.00" routeLength="399.41" waitingTime="19.00" waitingCount="1" stopTime="0.00" timeLoss="26.26" rerouteNo="0" devices="tripinfo_heavy_all_veh_000030" vType="car" speedFactor="0.93" vaporized=""/>
    <tripinfo id="heavy_all_veh_000019" depart="0.00" departLane="-E5_2" departPos="5.10" departSpeed="13.00" departDelay="0.00" arrival="60.00" arrivalLane="E3_1" arrivalPos="136.40" arrivalSpeed="12.86" duration="60.00" routeLength="399.41" waitingTime="21.00" waitingCount="1" stopTime="0.00" timeLoss="28.59" rerouteNo="0" devices="tripinfo_heavy_all_veh_000019" vType="car" speedFactor="0.94" vaporized=""/>
    <tripinfo id="heavy_all_veh_000026" depart="0.00" departLane="-E3_0" departPos="5.10" departSpeed="12.12" departDelay="0.00" arrival="62.00" arrivalLane="E4_0" arrivalPos="136.40" arrivalSpeed="12.11" duration="62.00" routeLength="276.73" waitingTime="32.00" waitingCount="1" stopTime="0.00" timeLoss="38.15" rerouteNo="0" devices="tripinfo_heavy_all_veh_000026" vType="car" speedFactor="0.87" vaporized=""/>
    <tripinfo id="heavy_all_veh_000018" depart="0.00" departLane="-E5_1" departPos="5.10" departSpeed="13.08" departDelay="0.00" arrival="64.00" arrivalLane="-E14_0" arrivalPos="136.40" arrivalSpeed="12.57" duration="64.00" routeLength="383.93" waitingTime="27.00" waitingCount="1" stopTime="0.00" timeLoss="33.10" rerouteNo="0" devices="tripinfo_heavy_all_veh_000018" vType="car" speedFactor="0.94" vaporized=""/>
    <tripinfo id="heavy_all_veh_000010" depart="0.00" departLane="E14_0" departPos="5.10" departSpeed="11.90" departDelay="0.00" arrival="66.00" arrivalLane="-E9_1" arrivalPos="136.40" arrivalSpeed="11.68" duration="66.00" routeLength="383.93" waitingTime="25.00" waitingCount="1" stopTime="0.00" timeLoss="32.31" rerouteNo="0" devices="tripinfo_heavy_all_veh_000010" vType="car" speedFactor="0.86" vaporized=""/>
    <tripinfo id="heavy_all_veh_000025" depart="1.00" departLane="-E4_0" departPos="5.10" departSpeed="10.46" departDelay="1.00" arrival="71.00" arrivalLane="E2_1" arrivalPos="136.40" arrivalSpeed="10.27" duration="70.00" routeLength="383.93" waitingTime="28.00" waitingCount="1" stopTime="0.00" timeLoss="35.06" rerouteNo="0" devices="tripinfo_heavy_all_veh_000025" vType="car" speedFactor="0.83" vaporized=""/>
    <tripinfo id="heavy_all_veh_000027" depart="0.00" departLane="-E3_1" departPos="5.10" departSpeed="12.74" departDelay="0.00" arrival="73.00" arrivalLane="E2_1" arrivalPos="136.40" arrivalSpeed="12.56" duration="73.00" routeLength="402.10" waitingTime="34.00" waitingCount="1" stopTime="0.00" timeLoss="40.67" rerouteNo="0" devices="tripinfo_heavy_all_veh_000027" vType="car" speedFactor="0.92" vaporized=""/>
    <tripinfo id="heavy_all_veh_000014" depart="0.00" departLane="-E2_0" departPos="5.10" departSpeed="13.89" departDelay="0.00" arrival="76.00" arrivalLane="-E14_0" arrivalPos="136.40" arrivalSpeed="13.21" duration="76.00" routeLength="365.76" waitingTime="40.00" waitingCount="1" stopTime="0.00" timeLoss="48.67" rerouteNo="0" devices="tripinfo_heavy_all_veh_000014" vType="car" speedFactor="1.12" vaporized=""/>
    <tripinfo id="heavy_all_veh_000067" depart="50.00" departLane="-E3_0" departPos="5.10" departSpeed="12.60" departDelay="0.00" arrival="76.00" arrivalLane="E4_0" arrivalPos="136.40" arrivalSpeed="11.71" duration="26.00" routeLength="276.73" waitingTime="0.00" waitingCount="0" stopTime="0.00" timeLoss="2.62" rerouteNo="0" devices="tripinfo_heavy_all_veh_000067" vType="car" speedFactor="0.91" vaporized=""/>
    <tripinfo id="heavy_all_veh_000024" depart="0.00" departLane="-E4_1" departPos="5.10" departSpeed="12.36" departDelay="0.00" arrival="78.00" arrivalLane="-E18_2" arrivalPos="136.40" arrivalSpeed="11.45" duration="78.00" routeLength="506.61" waitingTime="29.00" waitingCount="1" stopTime="0.00" timeLoss="36.11" rerouteNo="0" devices="tripinfo_heavy_all_veh_000024" vType="car" speedFactor="0.89" vaporized=""/>
    <tripinfo id="heavy_all_veh_000005" depart="1.00" departLane="E9_0" departPos="5.10" departSpeed="11.05" departDelay="1.00" arrival="82.00" arrivalLane="-E18_1" arrivalPos="136.40" arrivalSpeed="13.10" duration="81.00" routeLength="383.93" waitingTime="37.00" waitingCount="2" stopTime="0.00" timeLoss="52.52" rerouteNo="0" devices="tripinfo_heavy_all_veh_000005" vType="car" speedFactor="1.03" vaporized=""/>
    <tripinfo id="heavy_all_veh_000008" depart="1.00" departLane="E10_1" departPos="5.10" departSpeed="7.20" departDelay="1.00" arrival="83.00" arrivalLane="-E17_0" arrivalPos="136.40" arrivalSpeed="11.85" duration="82.00" routeLength="383.93" waitingTime="42.00" waitingCount="1" stopTime="0.00" timeLoss="49.46" rerouteNo="0" devices="tripinfo_heavy_all_veh_000008" vType="car" speedFactor="0.89" vaporized=""/>
    <tripinfo id="heavy_all_veh_000046" depart="51.00" departLane="E9_0" departPos="5.10" departSpeed="11.05" departDelay="1.00" arrival="84.00" arrivalLane="-E18_1" arrivalPos="136.40" arrivalSpeed="12.69" duration="33.00" routeLength="383.93" waitingTime="0.00" waitingCount="0" stopTime="0.00" timeLoss="4.90" rerouteNo="0" devices="tripinfo_heavy_all_veh_000046" vType="car" speedFactor="1.09" vaporized=""/>
    <tripinfo id="heavy_all_veh_000055" depart="50.00" departLane="-E2_0" departPos="5.10" departSpeed="13.89" departDelay="0.00" arrival="84.00" arrivalLane="-E14_0" arrivalPos="136.40" arrivalSpeed="12.91" duration="34.00" routeLength="365.76" waitingTime="0.00" waitingCount="0" stopTime="0.00" timeLoss="6.60" rerouteNo="0" devices="tripinfo_heavy_all_veh_000055" vType="car" speedFactor="1.00" vaporized=""/>
    <tripinfo id="heavy_all_veh_000068" depart="50.00" departLane="-E3_1" departPos="5.10" departSpeed="12.70" departDelay="0.00" arrival="84.00" arrivalLane="E2_1" arrivalPos="136.40" arrivalSpeed="11.64" duration="34.00" routeLength="402.10" waitingTime="0.00" waitingCount="0" stopTime="0.00" timeLoss="1.67" rerouteNo="0" devices="tripinfo_heavy_all_veh_000068" vType="car" speedFactor="0.91" vaporized=""/>
    <tripinfo id="heavy_all_veh_000015" depart="0.00" departLane="-E2_1" departPos="5.10" departSpeed="13.77" departDelay="0.00" arrival="88.00" arrivalLane="E4_2" arrivalPos="136.40" arrivalSpeed="13.51" duration="88.00" routeLength="399.41" waitingTime="46.00" waitingCount="2" stopTime="0.00" timeLoss="58.30" rerouteNo="0" devices="tripinfo_heavy_all_veh_000015" vType="car" speedFactor="0.99" vaporized=""/>
    <tripinfo id="heavy_all_veh_000004" depart="2.00" departLane="E9_1" departPos="5.10" departSpeed="7.01" departDelay="2.00" arrival="91.00" arrivalLane="-E14_2" arrivalPos="136.40" arrivalSpeed="12.60" duration="89.00" routeLength="399.41" waitingTime="42.00" waitingCount="2" stopTime="0.00" timeLoss="59.42" rerouteNo="0" devices="tripinfo_heavy_all_veh_000004" vType="car" speedFactor="1.08" vaporized=""/>
    <tripinfo id="heavy_all_veh_000056" depart="50.00" departLane="-E2_1" departPos="5.10" departSpeed="13.83" departDelay="0.00" arrival="91.00" arrivalLane="E4_2" arrivalPos="136.40" arrivalSpeed="12.73" duration="41.00" routeLength="399.41" waitingTime="5.00" waitingCount="1" stopTime="0.00" timeLoss="11.13" rerouteNo="0" devices="tripinfo_heavy_all_veh_000056" vType="car" speedFactor="1.00" vaporized=""/>
    <tripinfo id="heavy_all_veh_000045" depart="52.00" departLane="E9_1" departPos="5.10" departSpeed="5.01" departDelay="2.00" arrival="93.00" arrivalLane="-E14_2" arrivalPos="136.40" arrivalSpeed="13.32" duration="41.00" routeLength="399.41" waitingTime="1.00" waitingCount="1" stopTime="0.00" timeLoss="11.23" rerouteNo="0" devices="tripinfo_heavy_all_veh_000045" vType="car" speedFactor="1.04" vaporized=""/>
    <tripinfo id="heavy_all_veh_000020" depart="1.00" departLane="-E5_1" departPos="5.10" departSpeed="9.96" departDelay="1.00" arrival="98.00" arrivalLane="-E18_1" arrivalPos="136.40" arrivalSpeed="13.35" duration="97.00" routeLength="613.81" waitingTime="38.00" waitingCount="2" stopTime="0.00" timeLoss="52.43" rerouteNo="0" devices="tripinfo_heavy_all_veh_000020" vType="car" speedFactor="1.16" vaporized=""/>
    <tripinfo id="heavy_all_veh_000016" depart="1.00" departLane="-E2_0" departPos="5.10" departSpeed="10.34" departDelay="1.00" arrival="104.00" arrivalLane="-E17_0" arrivalPos="136.40" arrivalSpeed="12.65" duration="103.00" routeLength="577.47" waitingTime="40.00" waitingCount="1" stopTime="0.00" timeLoss="54.99" rerouteNo="0" devices="tripinfo_heavy_all_veh_000016" vType="car" speedFactor="0.93" vaporized=""/>
    <tripinfo id="heavy_all_veh_000039" depart="0.00" departLane="E17_1" departPos="5.10" departSpeed="13.89" departDelay="0.00" arrival="105.00" arrivalLane="E3_0" arrivalPos="136.40" arrivalSpeed="12.94" duration="105.00" routeLength="491.13" waitingTime="52.00" waitingCount="3" stopTime="0.00" timeLoss="68.94" rerouteNo="0" devices="tripinfo_heavy_all_veh_000039" vType="car" speedFactor="1.10" vaporized=""/>
    <tripinfo id="heavy_all_veh_000033" depart="1.00" departLane="-E19_2" departPos="5.10" departSpeed="9.15" departDelay="1.00" arrival="108.00" arrivalLane="-E10_1" arrivalPos="136.40" arrivalSpeed="12.93" duration="107.00" routeLength="488.44" waitingTime="55.00" waitingCount="2" stopTime="0.00" timeLoss="70.66" rerouteNo="0" devices="tripinfo_heavy_all_veh_000033" vType="car" speedFactor="1.01" vaporized=""/>
    <tripinfo id="heavy_all_veh_000038" depart="0.00" departLane="E17_2" departPos="5.10" departSpeed="13.89" departDelay="0.00" arrival="110.00" arrivalLane="-E10_1" arrivalPos="136.40" arrivalSpeed="13.65" duration="110.00" routeLength="399.41" waitingTime="69.00" waitingCount="2" stopTime="0.00" timeLoss="80.74" rerouteNo="0" devices="tripinfo_heavy_all_veh_000038" vType="car" speedFactor="1.18" vaporized=""/>
    <tripinfo id="heavy_all_veh_000021" depart="2.00" departLane="-E5_1" departPos="5.10" departSpeed="5.81" departDelay="2.00" arrival="112.00" arrivalLane="E19_1" arrivalPos="136.40" arrivalSpeed="12.60" duration="110.00" routeLength="506.61" waitingTime="59.00" waitingCount="2" stopTime="0.00" timeLoss="72.50" rerouteNo="0" devices="tripinfo_heavy_all_veh_000021" vType="car" speedFactor="1.02" vaporized=""/>
    <tripinfo id="heavy_all_veh_000079" depart="50.00" departLane="E17_2" departPos="5.10" departSpeed="13.89" departDelay="0.00" arrival="113.00" arrivalLane="-E10_1" arrivalPos="136.40" arrivalSpeed="13.67" duration="63.00" routeLength="399.41" waitingTime="25.00" waitingCount="1" stopTime="0.00" timeLoss="32.88" rerouteNo="0" devices="tripinfo_heavy_all_veh_000079" vType="car" speedFactor="1.01" vaporized=""/>
    <tripinfo id="heavy_all_veh_000011" depart="0.00" departLane="E14_2" departPos="5.10" departSpeed="13.89" departDelay="0.00" arrival="114.00" arrivalLane="E5_1" arrivalPos="136.40" arrivalSpeed="13.68" duration="114.00" routeLength="399.41" waitingTime="72.00" waitingCount="2" stopTime="0.00" timeLoss="84.04" rerouteNo="0" devices="tripinfo_heavy_all_veh_000011" vType="car" speedFactor="1.09" vaporized=""/>
    <tripinfo id="heavy_all_veh_000007" depart="0.00" departLane="E10_2" departPos="5.10" departSpeed="13.89" departDelay="0.00" arrival="115.00" arrivalLane="E5_1" arrivalPos="136.40" arrivalSpeed="13.37" duration="115.00" routeLength="506.61" waitingTime="61.00" waitingCount="3" stopTime="0.00" timeLoss="78.13" rerouteNo="0" devices="tripinfo_heavy_all_veh_000007" vType="car" speedFactor="1.05" vaporized=""/>
    <tripinfo id="heavy_all_veh_000017" depart="2.00" departLane="-E2_0" departPos="5.10" departSpeed="6.16" departDelay="2.00" arrival="116.00" arrivalLane="E19_1" arrivalPos="136.40" arrivalSpeed="11.17" duration="114.00" routeLength="488.44" waitingTime="51.00" waitingCount="3" stopTime="0.00" timeLoss="71.72" rerouteNo="0" devices="tripinfo_heavy_all_veh_000017" vType="car" speedFactor="0.88" vaporized=""/>
    <tripinfo id="heavy_all_veh_000058" depart="52.00" departLane="-E2_0" departPos="5.10" departSpeed="7.27" departDelay="2.00" arrival="117.00" arrivalLane="E19_1" arrivalPos="136.40" arrivalSpeed="13.53" duration="65.00" routeLength="488.44" waitingTime="5.00" waitingCount="1" stopTime="0.00" timeLoss="28.62" rerouteNo="0" devices="tripinfo_heavy_all_veh_000058" vType="car" speedFactor="1.14" vaporized=""/>
    <tripinfo id="heavy_all_veh_000002" depart="1.00" departLane="E9_1" departPos="5.10" departSpeed="10.23" departDelay="1.00" arrival="118.00" arrivalLane="E5_1" arrivalPos="136.40" arrivalSpeed="12.14" duration="117.00" routeLength="509.30" waitingTime="63.00" waitingCount="2" stopTime="0.00" timeLoss="77.49" rerouteNo="0" devices="tripinfo_heavy_all_veh_000002" vType="car" speedFactor="0.94" vaporized=""/>
    <tripinfo id="heavy_all_veh_000053" depart="50.00" departLane="E14_1" departPos="5.10" departSpeed="13.89" departDelay="0.00" arrival="119.00" arrivalLane="E19_1" arrivalPos="136.40" arrivalSpeed="12.60" duration="69.00" routeLength="402.10" waitingTime="30.00" waitingCount="1" stopTime="0.00" timeLoss="39.58" rerouteNo="0" devices="tripinfo_heavy_all_veh_000053" vType="car" speedFactor="1.02" vaporized=""/>
    <tripinfo id="heavy_all_veh_000072" depart="50.00" departLane="-E19_0" departPos="5.10" departSpeed="13.51" departDelay="0.00" arrival="119.00" arrivalLane="E4_1" arrivalPos="136.40" arrivalSpeed="13.29" duration="69.00" routeLength="383.93" waitingTime="35.00" waitingCount="1" stopTime="0.00" timeLoss="39.44" rerouteNo="0" devices="tripinfo_heavy_all_veh_000072" vType="car" speedFactor="0.97" vaporized=""/>
    <tripinfo id="heavy_all_veh_000043" depart="51.00" departLane="E9_1" departPos="5.10" departSpeed="9.94" departDelay="1.00" arrival="120.00" arrivalLane="E5_1" arrivalPos="136.40" arrivalSpeed="13.28" duration="69.00" routeLength="509.30" waitingTime="22.00" waitingCount="1" stopTime="0.00" timeLoss="31.60" rerouteNo="0" devices="tripinfo_heavy_all_veh_000043" vType="car" speedFactor="1.09" vaporized=""/>
    <tripinfo id="heavy_all_veh_000073" depart="50.00" departLane="-E19_1" departPos="5.10" departSpeed="13.06" departDelay="0.00" arrival="131.00" arrivalLane="E5_1" arrivalPos="136.40" arrivalSpeed="12.42" duration="81.00" routeLength="491.13" waitingTime="32.00" waitingCount="1" stopTime="0.00" timeLoss="42.58" rerouteNo="0" devices="tripinfo_heavy_all_veh_000073" vType="car" speedFactor="0.94" vaporized=""/>
    <tripinfo id="heavy_all_veh_000063" depart="50.00" departLane="-E4_2" departPos="5.10" departSpeed="13.89" departDelay="0.00" arrival="134.00" arrivalLane="E3_2" arrivalPos="136.40" arrivalSpeed="13.88" duration="84.00" routeLength="292.21" waitingTime="56.00" waitingCount="1" stopTime="0.00" timeLoss="61.78" rerouteNo="0" devices="tripinfo_heavy_all_veh_000063" vType="car" speedFactor="1.02" vaporized=""/>
    <tripinfo id="heavy_all_veh_000094" depart="100.00" departLane="E14_1" departPos="5.10" departSpeed="12.80" departDelay="0.00" arrival="134.00" arrivalLane="E19_1" arrivalPos="136.40" arrivalSpeed="11.50" duration="34.00" routeLength="402.10" waitingTime="0.00" waitingCount="0" stopTime="0.00" timeLoss="1.69" rerouteNo="0" devices="tripinfo_heavy_all_veh_000094" vType="car" speedFactor="0.92" vaporized=""/>
    <tripinfo id="heavy_all_veh_000034" depart="0.00" departLane="E18_1" departPos="5.10" departSpeed="13.89" departDelay="0.00" arrival="136.00" arrivalLane="-E9_2" arrivalPos="136.40" arrivalSpeed="12.92" duration="136.00" routeLength="399.41" waitingTime="94.00" waitingCount="2" stopTime="0.00" timeLoss="106.63" rerouteNo="0" devices="tripinfo_heavy_all_veh_000034" vType="car" speedFactor="1.17" vaporized=""/>
    <tripinfo id="heavy_all_veh_000104" depart="100.00" departLane="-E4_2" departPos="5.10" departSpeed="13.23" departDelay="0.00" arrival="136.00" arrivalLane="E3_2" arrivalPos="136.40" arrivalSpeed="13.04" duration="36.00" routeLength="292.21" waitingTime="6.00" waitingCount="1" stopTime="0.00" timeLoss="12.92" rerouteNo="0" devices="tripinfo_heavy_all_veh_000104" vType="car" speedFactor="0.95" vaporized=""/>
    <tripinfo id="heavy_all_veh_000075" depart="50.00" departLane="E18_1" departPos="5.10" departSpeed="13.27" departDelay="0.00" arrival="139.00" arrivalLane="-E9_2" arrivalPos="136.40" arrivalSpeed="12.96" duration="89.00" routeLength="399.41" waitingTime="46.00" waitingCount="2" stopTime="0.00" timeLoss="57.77" rerouteNo="0" devices="tripinfo_heavy_all_veh_000075" vType="car" speedFactor="0.96" vaporized=""/>
    <tripinfo id="heavy_all_veh_000071" depart="50.00" departLane="-E19_2" departPos="5.10" departSpeed="13.89" departDelay="0.00" arrival="147.00" arrivalLane="-E17_1" arrivalPos="136.40" arrivalSpeed="12.96" duration="97.00" routeLength="399.41" waitingTime="61.00" waitingCount="1" stopTime="0.00" timeLoss="67.00" rerouteNo="0" devices="tripinfo_heavy_all_veh_000071" vType="car" speedFactor="1.02" vaporized=""/>
    <tripinfo id="heavy_all_veh_000060" depart="50.00" departLane="-E5_2" departPos="5.10" departSpeed="13.47" departDelay="0.00" arrival="150.00" arrivalLane="E3_1" arrivalPos="136.40" arrivalSpeed="12.28" duration="100.00" routeLength="399.41" waitingTime="63.00" waitingCount="1" stopTime="0.00" timeLoss="69.31" rerouteNo="0" devices="tripinfo_heavy_all_veh_000060" vType="car" speedFactor="0.97" vaporized=""/>
    <tripinfo id="heavy_all_veh_000108" depart="100.00" departLane="-E3_0" departPos="5.10" departSpeed="13.89" departDelay="0.00" arrival="150.00" arrivalLane="E4_0" arrivalPos="136.40" arrivalSpeed="13.73" duration="50.00" routeLength="276.73" waitingTime="25.00" waitingCount="1" stopTime="0.00" timeLoss="29.34" rerouteNo="0" devices="tripinfo_heavy_all_veh_000108" vType="car" speedFactor="1.03" vaporized=""/>
    <tripinfo id="heavy_all_veh_000101" depart="100.00" departLane="-E5_2" departPos="5.10" departSpeed="13.89" departDelay="0.00" arrival="152.00" arrivalLane="E3_1" arrivalPos="136.40" arrivalSpeed="13.10" duration="52.00" routeLength="399.41" waitingTime="15.00" waitingCount="1" stopTime="0.00" timeLoss="22.08" rerouteNo="0" devices="tripinfo_heavy_all_veh_000101" vType="car" speedFactor="1.06" vaporized=""/>
    <tripinfo id="heavy_all_veh_000023" depart="0.00" departLane="-E4_0" departPos="5.10" departSpeed="13.54" departDelay="0.00" arrival="153.00" arrivalLane="-E14_0" arrivalPos="136.40" arrivalSpeed="13.25" duration="153.00" routeLength="470.27" waitingTime="102.00" waitingCount="2" stopTime="0.00" timeLoss="115.97" rerouteNo="0" devices="tripinfo_heavy_all_veh_000023" vType="car" speedFactor="0.97" vaporized=""/>
    <tripinfo id="heavy_all_veh_000029" depart="1.00" departLane="-E3_1" departPos="5.10" departSpeed="9.67" departDelay="1.00" arrival="155.00" arrivalLane="-E14_0" arrivalPos="136.40" arrivalSpeed="13.84" duration="154.00" routeLength="488.44" waitingTime="94.00" waitingCount="3" stopTime="0.00" timeLoss="117.76" rerouteNo="0" devices="tripinfo_heavy_all_veh_000029" vType="car" speedFactor="1.13" vaporized=""/>
    <tripinfo id="heavy_all_veh_000051" depart="50.00" departLane="E14_0" departPos="5.10" departSpeed="11.87" departDelay="0.00" arrival="156.00" arrivalLane="-E9_1" arrivalPos="136.40" arrivalSpeed="11.58" duration="106.00" routeLength="383.93" waitingTime="62.00" waitingCount="2" stopTime="0.00" timeLoss="72.44" rerouteNo="0" devices="tripinfo_heavy_all_veh_000051" vType="car" speedFactor="0.85" vaporized=""/>
    <tripinfo id="heavy_all_veh_000006" depart="0.00" departLane="E10_1" departPos="5.10" departSpeed="11.54" departDelay="0.00" arrival="158.00" arrivalLane="E19_0" arrivalPos="136.40" arrivalSpeed="11.34" duration="158.00" routeLength="488.44" waitingTime="104.00" waitingCount="2" stopTime="0.00" timeLoss="113.88" rerouteNo="0" devices="tripinfo_heavy_all_veh_000006" vType="car" speedFactor="0.83" vaporized=""/>
    <tripinfo id="heavy_all_veh_000092" depart="100.00" departLane="E14_0" departPos="5.10" departSpeed="12.39" departDelay="0.00" arrival="158.00" arrivalLane="-E9_1" arrivalPos="136.40" arrivalSpeed="12.15" duration="58.00" routeLength="383.93" waitingTime="16.00" waitingCount="1" stopTime="0.00" timeLoss="25.10" rerouteNo="0" devices="tripinfo_heavy_all_veh_000092" vType="car" speedFactor="0.89" vaporized=""/>
    <tripinfo id="heavy_all_veh_000070" depart="51.00" departLane="-E3_1" departPos="5.10" departSpeed="9.62" departDelay="1.00" arrival="159.00" arrivalLane="-E14_0" arrivalPos="136.40" arrivalSpeed="13.13" duration="108.00" routeLength="488.44" waitingTime="53.00" waitingCount="2" stopTime="0.00" timeLoss="70.58" rerouteNo="0" devices="tripinfo_heavy_all_veh_000070" vType="car" speedFactor="1.02" vaporized=""/>
    <tripinfo id="heavy_all_veh_000047" depart="50.00" departLane="E10_1" departPos="5.10" departSpeed="13.85" departDelay="0.00" arrival="160.00" arrivalLane="E19_0" arrivalPos="136.40" arrivalSpeed="13.31" duration="110.00" routeLength="488.44" waitingTime="59.00" waitingCount="2" stopTime="0.00" timeLoss="72.61" rerouteNo="0" devices="tripinfo_heavy_all_veh_000047" vType="car" speedFactor="1.00" vaporized=""/>
    <tripinfo id="heavy_all_veh_000066" depart="51.00" departLane="-E4_0" departPos="5.10" departSpeed="10.24" departDelay="1.00" arrival="160.00" arrivalLane="E2_1" arrivalPos="136.40" arrivalSpeed="11.04" duration="109.00" routeLength="383.93" waitingTime="63.00" waitingCount="2" stopTime="0.00" timeLoss="77.01" rerouteNo="0" devices="tripinfo_heavy_all_veh_000066" vType="car" speedFactor="0.88" vaporized=""/>
    <tripinfo id="heavy_all_veh_000059" depart="50.00" departLane="-E5_1" departPos="5.10" departSpeed="13.89" departDelay="0.00" arrival="161.00" arrivalLane="-E14_0" arrivalPos="136.40" arrivalSpeed="13.23" duration="111.00" routeLength="383.93" waitingTime="66.00" waitingCount="2" stopTime="0.00" timeLoss="81.83" rerouteNo="0" devices="tripinfo_heavy_all_veh_000059" vType="car" speedFactor="1.02" vaporized=""/>
    <tripinfo id="heavy_all_veh_000107" depart="101.00" departLane="-E4_0" departPos="5.10" departSpeed="9.57" departDelay="1.00" arrival="162.00" arrivalLane="E2_1" arrivalPos="136.40" arrivalSpeed="13.00" duration="61.00" routeLength="383.93" waitingTime="18.00" waitingCount="1" stopTime="0.00" timeLoss="32.45" rerouteNo="0" devices="tripinfo_heavy_all_veh_000107" vType="car" speedFactor="1.01" vaporized=""/>
    <tripinfo id="heavy_all_veh_000100" depart="100.00" departLane="-E5_1" departPos="5.10" departSpeed="13.89" departDelay="0.00" arrival="163.00" arrivalLane="-E14_0" arrivalPos="136.40" arrivalSpeed="13.31" duration="63.00" routeLength="383.93" waitingTime="23.00" waitingCount="1" stopTime="0.00" timeLoss="34.87" rerouteNo="0" devices="tripinfo_heavy_all_veh_000100" vType="car" speedFactor="1.10" vaporized=""/>
    <tripinfo id="heavy_all_veh_000109" depart="100.00" departLane="-E3_1" departPos="5.10" departSpeed="13.89" departDelay="0.00" arrival="164.00" arrivalLane="E2_1" arrivalPos="136.40" arrivalSpeed="12.77" duration="64.00" routeLength="402.10" waitingTime="24.00" waitingCount="1" stopTime="0.00" timeLoss="34.30" rerouteNo="0" devices="tripinfo_heavy_all_veh_000109" vType="car" speedFactor="1.06" vaporized=""/>
    <tripinfo id="heavy_all_veh_000096" depart="100.00" departLane="-E2_0" departPos="5.10" departSpeed="13.89" departDelay="0.00" arrival="167.00" arrivalLane="-E14_0" arrivalPos="136.40" arrivalSpeed="13.09" duration="67.00" routeLength="365.76" waitingTime="30.00" waitingCount="1" stopTime="0.00" timeLoss="38.50" rerouteNo="0" devices="tripinfo_heavy_all_veh_000096" vType="car" speedFactor="1.06" vaporized=""/>
    <tripinfo id="heavy_all_veh_000049" depart="51.00" departLane="E10_1" departPos="5.10" departSpeed="10.11" departDelay="1.00" arrival="173.00" arrivalLane="-E17_0" arrivalPos="136.40" arrivalSpeed="11.06" duration="122.00" routeLength="383.93" waitingTime="77.00" waitingCount="2" stopTime="0.00" timeLoss="89.82" rerouteNo="0" devices="tripinfo_heavy_all_veh_000049" vType="car" speedFactor="0.88" vaporized=""/>
    <tripinfo id="heavy_all_veh_000087" depart="101.00" departLane="E9_0" departPos="5.10" departSpeed="10.80" departDelay="1.00" arrival="173.00" arrivalLane="-E18_1" arrivalPos="136.40" arrivalSpeed="13.37" duration="72.00" routeLength="383.93" waitingTime="30.00" waitingCount="2" stopTime="0.00" timeLoss="43.05" rerouteNo="0" devices="tripinfo_heavy_all_veh_000087" vType="car" speedFactor="1.00" vaporized=""/>
    <tripinfo id="heavy_all_veh_000149" depart="150.00" departLane="-E3_0" departPos="5.10" departSpeed="13.43" departDelay="0.00" arrival="174.00" arrivalLane="E4_0" arrivalPos="136.40" arrivalSpeed="12.17" duration="24.00" routeLength="276.73" waitingTime="0.00" waitingCount="0" stopTime="0.00" timeLoss="2.34" rerouteNo="0" devices="tripinfo_heavy_all_veh_000149" vType="car" speedFactor="0.97" vaporized=""/>
    <tripinfo id="heavy_all_veh_000090" depart="101.00" departLane="E10_1" departPos="5.10" departSpeed="10.51" departDelay="1.00" arrival="175.00" arrivalLane="-E17_0" arrivalPos="136.40" arrivalSpeed="13.41" duration="74.00" routeLength="383.93" waitingTime="36.00" waitingCount="1" stopTime="0.00" timeLoss="44.91" rerouteNo="0" devices="tripinfo_heavy_all_veh_000090" vType="car" speedFactor="1.02" vaporized=""/>
    <tripinfo id="heavy_all_veh_000013" depart="1.00" departLane="E14_2" departPos="5.10" departSpeed="10.30" departDelay="1.00" arrival="178.00" arrivalLane="E4_2" arrivalPos="136.40" arrivalSpeed="13.61" duration="177.00" routeLength="485.75" waitingTime="123.00" waitingCount="3" stopTime="0.00" timeLoss="140.81" rerouteNo="0" devices="tripinfo_heavy_all_veh_000013" vType="car" speedFactor="1.05" vaporized=""/>
    <tripinfo id="heavy_all_veh_000150" depart="150.00" departLane="-E3_1" departPos="5.10" departSpeed="13.89" departDelay="0.00" arrival="180.00" arrivalLane="E2_1" arrivalPos="136.40" arrivalSpeed="13.80" duration="30.00" routeLength="402.10" waitingTime="0.00" waitingCount="0" stopTime="0.00" timeLoss="1.03" rerouteNo="0" devices="tripinfo_heavy_all_veh_000150" vType="car" speedFactor="1.04" vaporized=""/>
    <tripinfo id="heavy_all_veh_000097" depart="100.00" departLane="-E2_1" departPos="5.10" departSpeed="13.89" departDelay="0.00" arrival="181.00" arrivalLane="E4_2" arrivalPos="136.40" arrivalSpeed="13.65" duration="81.00" routeLength="399.41" waitingTime="38.00" waitingCount="2" stopTime="0.00" timeLoss="51.41" rerouteNo="0" devices="tripinfo_heavy_all_veh_000097" vType="car" speedFactor="1.01" vaporized=""/>
    <tripinfo id="heavy_all_veh_000040" depart="1.00" departLane="E17_2" departPos="5.10" departSpeed="10.77" departDelay="1.00" arrival="182.00" arrivalLane="-E14_2" arrivalPos="136.40" arrivalSpeed="12.18" duration="181.00" routeLength="485.75" waitingTime="122.00" waitingCount="3" stopTime="0.00" timeLoss="140.17" rerouteNo="0" devices="tripinfo_heavy_all_veh_000040" vType="car" speedFactor="0.90" vaporized=""/>
    <tripinfo id="heavy_all_veh_000138" depart="150.00" departLane="-E2_1" departPos="5.10" departSpeed="13.89" departDelay="0.00" arrival="183.00" arrivalLane="E4_2" arrivalPos="136.40" arrivalSpeed="12.79" duration="33.00" routeLength="399.41" waitingTime="0.00" waitingCount="0" stopTime="0.00" timeLoss="3.26" rerouteNo="0" devices="tripinfo_heavy_all_veh_000138" vType="car" speedFactor="1.02" vaporized=""/>