<?xml version="1.0" encoding="UTF-8"?>

<!-- generated on 2026-07-17 16:33:07 by Eclipse SUMO sumo Version 1.19.0
<configuration xmlns:xsi="http://www.w3.org/2001/XMLSchema-instance" xsi:noNamespaceSchemaLocation="http://sumo.dlr.de/xsd/sumoConfiguration.xsd">

    <input>
        <net-file value="test_random_offsets_seed20260708.net.xml"/>
        <route-files value="free_all_no_change.rou.xml"/>
    </input>

    <output>
        <tripinfo-output value="tripinfo_free_all_no_change.xml"/>
    </output>

    <time>
        <begin value="0"/>
    </time>

    <report>
        <duration-log.statistics value="true"/>
        <no-step-log value="true"/>
    </report>

</configuration>
-->

<tripinfos xmlns:xsi="http://www.w3.org/2001/XMLSchema-instance" xsi:noNamespaceSchemaLocation="http://sumo.dlr.de/xsd/tripinfo_file.xsd">
    <tripinfo id="free_all_veh_000012" depart="0.00" departLane="E14_1" departPos="5.10" departSpeed="13.89" departDelay="0.00" arrival="31.00" arrivalLane="E19_1" arrivalPos="136.40" arrivalSpeed="13.58" duration="31.00" routeLength="402.10" waitingTime="0.00" waitingCount="0" stopTime="0.00" timeLoss="1.51" rerouteNo="0" devices="tripinfo_free_all_veh_000012" vType="car" speedFactor="1.03" vaporized=""/>
    <tripinfo id="free_all_veh_000031" depart="0.00" departLane="-E19_0" departPos="5.10" departSpeed="13.89" departDelay="0.00" arrival="31.00" arrivalLane="E4_1" arrivalPos="136.40" arrivalSpeed="12.81" duration="31.00" routeLength="383.93" waitingTime="0.00" waitingCount="0" stopTime="0.00" timeLoss="2.86" rerouteNo="0" devices="tripinfo_free_all_veh_000031" vType="car" speedFactor="1.18" vaporized=""/>
    <tripinfo id="free_all_veh_000032" depart="0.00" departLane="-E19_1" departPos="5.10" departSpeed="13.89" departDelay="0.00" arrival="39.00" arrivalLane="E5_1" arrivalPos="136.40" arrivalSpeed="12.60" duration="39.00" routeLength="491.13" waitingTime="0.00" waitingCount="0" stopTime="0.00" timeLoss="3.16" rerouteNo="0" devices="tripinfo_free_all_veh_000032" vType="car" speedFactor="1.15" vaporized=""/>
    <tripinfo id="free_all_veh_000022" depart="0.00" departLane="-E4_2" departPos="5.10" departSpeed="13.89" departDelay="0.00" arrival="43.00" arrivalLane="E3_2" arrivalPos="136.40" arrivalSpeed="12.95" duration="43.00" routeLength="292.21" waitingTime="16.00" waitingCount="1" stopTime="0.00" timeLoss="21.27" rerouteNo="0" devices="tripinfo_free_all_veh_000022" vType="car" speedFactor="1.01" vaporized=""/>
    <tripinfo id="free_all_veh_000030" depart="0.00" departLane="-E19_2" departPos="5.10" departSpeed="12.94" departDelay="0.00" arrival="58.00" arrivalLane="-E17_1" arrivalPos="136.40" arrivalSpeed="11.84" duration="58.00" routeLength="399.41" waitingTime="19.00" waitingCount="1" stopTime="0.00" timeLoss="26.26" rerouteNo="0" devices="tripinfo_free_all_veh_000030" vType="car" speedFactor="0.93" vaporized=""/>
    <tripinfo id="free_all_veh_000019" depart="0.00" departLane="-E5_2" departPos="5.10" departSpeed="13.00" departDelay="0.00" arrival="60.00" arrivalLane="E3_1" arrivalPos="136.40" arrivalSpeed="12.86" duration="60.00" routeLength="399.41" waitingTime="21.00" waitingCount="1" stopTime="0.00" timeLoss="28.59" rerouteNo="0" devices="tripinfo_free_all_veh_000019" vType="car" speedFactor="0.94" vaporized=""/>
    <tripinfo id="free_all_veh_000026" depart="0.00" departLane="-E3_0" departPos="5.10" departSpeed="12.12" departDelay="0.00" arrival="62.00" arrivalLane="E4_0" arrivalPos="136.40" arrivalSpeed="12.11" duration="62.00" routeLength="276.73" waitingTime="32.00" waitingCount="1" stopTime="0.00" timeLoss="38.15" rerouteNo="0" devices="tripinfo_free_all_veh_000026" vType="car" speedFactor="0.87" vaporized=""/>
    <tripinfo id="free_all_veh_000018" depart="0.00" departLane="-E5_1" departPos="5.10" departSpeed="13.08" departDelay="0.00" arrival="63.00" arrivalLane="-E14_0" arrivalPos="136.40" arrivalSpeed="13.06" duration="63.00" routeLength="383.93" waitingTime="27.00" waitingCount="1" stopTime="0.00" timeLoss="33.18" rerouteNo="0" devices="tripinfo_free_all_veh_000018" vType="car" speedFactor="0.94" vaporized=""/>
    <tripinfo id="free_all_veh_000010" depart="0.00" departLane="E14_0" departPos="5.10" departSpeed="11.90" departDelay="0.00" arrival="66.00" arrivalLane="-E9_1" arrivalPos="136.40" arrivalSpeed="11.68" duration="66.00" routeLength="383.93" waitingTime="25.00" waitingCount="1" stopTime="0.00" timeLoss="32.35" rerouteNo="0" devices="tripinfo_free_all_veh_000010" vType="car" speedFactor="0.86" vaporized=""/>
    <tripinfo id="free_all_veh_000025" depart="1.00" departLane="-E4_0" departPos="5.10" departSpeed="10.46" departDelay="1.00" arrival="71.00" arrivalLane="E2_1" arrivalPos="136.40" arrivalSpeed="10.27" duration="70.00" routeLength="383.93" waitingTime="28.00" waitingCount="1" stopTime="0.00" timeLoss="35.06" rerouteNo="0" devices="tripinfo_free_all_veh_000025" vType="car" speedFactor="0.83" vaporized=""/>
    <tripinfo id="free_all_veh_000027" depart="0.00" departLane="-E3_1" departPos="5.10" departSpeed="12.74" departDelay="0.00" arrival="73.00" arrivalLane="E2_1" arrivalPos="136.40" arrivalSpeed="12.56" duration="73.00" routeLength="402.10" waitingTime="34.00" waitingCount="1" stopTime="0.00" timeLoss="40.67" rerouteNo="0" devices="tripinfo_free_all_veh_000027" vType="car" speedFactor="0.92" vaporized=""/>
    <tripinfo id="free_all_veh_000014" depart="0.00" departLane="-E2_0" departPos="5.10" departSpeed="13.89" departDelay="0.00" arrival="77.00" arrivalLane="-E14_0" arrivalPos="136.40" arrivalSpeed="13.44" duration="77.00" routeLength="365.76" waitingTime="40.00" waitingCount="1" stopTime="0.00" timeLoss="49.02" rerouteNo="0" devices="tripinfo_free_all_veh_000014" vType="car" speedFactor="1.12" vaporized=""/>
    <tripinfo id="free_all_veh_000024" depart="0.00" departLane="-E4_1" departPos="5.10" departSpeed="12.36" departDelay="0.00" arrival="78.00" arrivalLane="-E18_2" arrivalPos="136.40" arrivalSpeed="11.48" duration="78.00" routeLength="506.61" waitingTime="29.00" waitingCount="1" stopTime="0.00" timeLoss="36.09" rerouteNo="0" devices="tripinfo_free_all_veh_000024" vType="car" speedFactor="0.89" vaporized=""/>
    <tripinfo id="free_all_veh_000005" depart="1.00" departLane="E9_0" departPos="5.10" departSpeed="11.05" departDelay="1.00" arrival="83.00" arrivalLane="-E18_1" arrivalPos="136.40" arrivalSpeed="13.16" duration="82.00" routeLength="383.93" waitingTime="38.00" waitingCount="2" stopTime="0.00" timeLoss="52.81" rerouteNo="0" devices="tripinfo_free_all_veh_000005" vType="car" speedFactor="1.03" vaporized=""/>
    <tripinfo id="free_all_veh_000008" depart="1.00" departLane="E10_1" departPos="5.10" departSpeed="7.20" departDelay="1.00" arrival="83.00" arrivalLane="-E17_0" arrivalPos="136.40" arrivalSpeed="12.23" duration="82.00" routeLength="383.93" waitingTime="42.00" waitingCount="1" stopTime="0.00" timeLoss="49.60" rerouteNo="0" devices="tripinfo_free_all_veh_000008" vType="car" speedFactor="0.89" vaporized=""/>
    <tripinfo id="free_all_veh_000015" depart="0.00" departLane="-E2_1" departPos="5.10" departSpeed="13.77" departDelay="0.00" arrival="89.00" arrivalLane="E4_2" arrivalPos="136.40" arrivalSpeed="12.58" duration="89.00" routeLength="399.41" waitingTime="46.00" waitingCount="2" stopTime="0.00" timeLoss="59.21" rerouteNo="0" devices="tripinfo_free_all_veh_000015" vType="car" speedFactor="0.99" vaporized=""/>
    <tripinfo id="free_all_veh_000004" depart="2.00" departLane="E9_1" departPos="5.10" departSpeed="7.01" departDelay="2.00" arrival="91.00" arrivalLane="-E14_2" arrivalPos="136.40" arrivalSpeed="13.01" duration="89.00" routeLength="399.41" waitingTime="44.00" waitingCount="2" stopTime="0.00" timeLoss="59.19" rerouteNo="0" devices="tripinfo_free_all_veh_000004" vType="car" speedFactor="1.08" vaporized=""/>
    <tripinfo id="free_all_veh_000020" depart="1.00" departLane="-E5_1" departPos="5.10" departSpeed="9.96" departDelay="1.00" arrival="99.00" arrivalLane="-E18_1" arrivalPos="136.40" arrivalSpeed="13.83" duration="98.00" routeLength="613.81" waitingTime="37.00" waitingCount="2" stopTime="0.00" timeLoss="52.64" rerouteNo="0" devices="tripinfo_free_all_veh_000020" vType="car" speedFactor="1.16" vaporized=""/>
    <tripinfo id="free_all_veh_000016" depart="1.00" departLane="-E2_0" departPos="5.10" departSpeed="10.34" departDelay="1.00" arrival="103.00" arrivalLane="-E17_0" arrivalPos="136.40" arrivalSpeed="12.49" duration="102.00" routeLength="577.47" waitingTime="40.00" waitingCount="1" stopTime="0.00" timeLoss="54.44" rerouteNo="0" devices="tripinfo_free_all_veh_000016" vType="car" speedFactor="0.93" vaporized=""/>
    <tripinfo id="free_all_veh_000039" depart="0.00" departLane="E17_1" departPos="5.10" departSpeed="13.89" departDelay="0.00" arrival="105.00" arrivalLane="E3_0" arrivalPos="136.40" arrivalSpeed="13.07" duration="105.00" routeLength="491.13" waitingTime="52.00" waitingCount="3" stopTime="0.00" timeLoss="68.90" rerouteNo="0" devices="tripinfo_free_all_veh_000039" vType="car" speedFactor="1.10" vaporized=""/>
    <tripinfo id="free_all_veh_000033" depart="1.00" departLane="-E19_2" departPos="5.10" departSpeed="9.15" departDelay="1.00" arrival="109.00" arrivalLane="-E10_1" arrivalPos="136.40" arrivalSpeed="13.12" duration="108.00" routeLength="488.44" waitingTime="55.00" waitingCount="2" stopTime="0.00" timeLoss="71.39" rerouteNo="0" devices="tripinfo_free_all_veh_000033" vType="car" speedFactor="1.01" vaporized=""/>
    <tripinfo id="free_all_veh_000038" depart="0.00" departLane="E17_2" departPos="5.10" departSpeed="13.89" departDelay="0.00" arrival="111.00" arrivalLane="-E10_1" arrivalPos="136.40" arrivalSpeed="12.95" duration="111.00" routeLength="399.41" waitingTime="69.00" waitingCount="2" stopTime="0.00" timeLoss="81.46" rerouteNo="0" devices="tripinfo_free_all_veh_000038" vType="car" speedFactor="1.18" vaporized=""/>
    <tripinfo id="free_all_veh_000021" depart="2.00" departLane="-E5_1" departPos="5.10" departSpeed="5.81" departDelay="2.00" arrival="112.00" arrivalLane="E19_1" arrivalPos="136.40" arrivalSpeed="13.24" duration="110.00" routeLength="506.61" waitingTime="59.00" waitingCount="2" stopTime="0.00" timeLoss="72.63" rerouteNo="0" devices="tripinfo_free_all_veh_000021" vType="car" speedFactor="1.02" vaporized=""/>
    <tripinfo id="free_all_veh_000011" depart="0.00" departLane="E14_2" departPos="5.10" departSpeed="13.89" departDelay="0.00" arrival="114.00" arrivalLane="E5_1" arrivalPos="136.40" arrivalSpeed="13.45" duration="114.00" routeLength="399.41" waitingTime="72.00" waitingCount="2" stopTime="0.00" timeLoss="84.09" rerouteNo="0" devices="tripinfo_free_all_veh_000011" vType="car" speedFactor="1.09" vaporized=""/>
    <tripinfo id="free_all_veh_000007" depart="0.00" departLane="E10_2" departPos="5.10" departSpeed="13.89" departDelay="0.00" arrival="115.00" arrivalLane="E5_1" arrivalPos="136.40" arrivalSpeed="13.15" duration="115.00" routeLength="506.61" waitingTime="61.00" waitingCount="3" stopTime="0.00" timeLoss="78.18" rerouteNo="0" devices="tripinfo_free_all_veh_000007" vType="car" speedFactor="1.05" vaporized=""/>
    <tripinfo id="free_all_veh_000017" depart="2.00" departLane="-E2_0" departPos="5.10" departSpeed="6.16" departDelay="2.00" arrival="116.00" arrivalLane="E19_1" arrivalPos="136.40" arrivalSpeed="11.86" duration="114.00" routeLength="488.44" waitingTime="51.00" waitingCount="3" stopTime="0.00" timeLoss="71.68" rerouteNo="0" devices="tripinfo_free_all_veh_000017" vType="car" speedFactor="0.88" vaporized=""/>
    <tripinfo id="free_all_veh_000002" depart="1.00" departLane="E9_1" departPos="5.10" departSpeed="10.23" departDelay="1.00" arrival="118.00" arrivalLane="E5_1" arrivalPos="136.40" arrivalSpeed="12.48" duration="117.00" routeLength="509.30" waitingTime="63.00" waitingCount="2" stopTime="0.00" timeLoss="77.70" rerouteNo="0" devices="tripinfo_free_all_veh_000002" vType="car" speedFactor="0.94" vaporized=""/>
    <tripinfo id="free_all_veh_000034" depart="0.00" departLane="E18_1" departPos="5.10" departSpeed="13.89" departDelay="0.00" arrival="136.00" arrivalLane="-E9_2" arrivalPos="136.40" arrivalSpeed="13.08" duration="136.00" routeLength="399.41" waitingTime="95.00" waitingCount="2" stopTime="0.00" timeLoss="106.54" rerouteNo="0" devices="tripinfo_free_all_veh_000034" vType="car" speedFactor="1.17" vaporized=""/>
    <tripinfo id="free_all_veh_000023" depart="0.00" departLane="-E4_0" departPos="5.10" departSpeed="13.54" departDelay="0.00" arrival="153.00" arrivalLane="-E14_0" arrivalPos="136.40" arrivalSpeed="12.52" duration="153.00" routeLength="470.27" waitingTime="103.00" waitingCount="2" stopTime="0.00" timeLoss="115.88" rerouteNo="0" devices="tripinfo_free_all_veh_000023" vType="car" speedFactor="0.97" vaporized=""/>
    <tripinfo id="free_all_veh_000029" depart="1.00" departLane="-E3_1" departPos="5.10" departSpeed="9.67" departDelay="1.00" arrival="155.00" arrivalLane="-E14_0" arrivalPos="136.40" arrivalSpeed="12.93" duration="154.00" routeLength="488.44" waitingTime="95.00" waitingCount="3" stopTime="0.00" timeLoss="117.88" rerouteNo="0" devices="tripinfo_free_all_veh_000029" vType="car" speedFactor="1.13" vaporized=""/>
    <tripinfo id="free_all_veh_000001" depart="0.00" departLane="E9_1" departPos="5.10" departSpeed="13.89" departDelay="0.00" arrival="157.00" arrivalLane="E5_0" arrivalPos="136.40" arrivalSpeed="13.07" duration="157.00" routeLength="681.98" waitingTime="89.00" waitingCount="2" stopTime="0.00" timeLoss="105.08" rerouteNo="0" devices="tripinfo_free_all_veh_000001" vType="car" speedFactor="1.06" vaporized=""/>
    <tripinfo id="free_all_veh_000006" depart="0.00" departLane="E10_1" departPos="5.10" departSpeed="11.54" departDelay="0.00" arrival="158.00" arrivalLane="E19_0" arrivalPos="136.40" arrivalSpeed="11.21" duration="158.00" routeLength="488.44" waitingTime="103.00" waitingCount="2" stopTime="0.00" timeLoss="113.65" rerouteNo="0" devices="tripinfo_free_all_veh_000006" vType="car" speedFactor="0.83" vaporized=""/>
    <tripinfo id="free_all_veh_000013" depart="1.00" departLane="E14_2" departPos="5.10" departSpeed="10.30" departDelay="1.00" arrival="179.00" arrivalLane="E4_2" arrivalPos="136.40" arrivalSpeed="13.39" duration="178.00" routeLength="485.75" waitingTime="122.00" waitingCount="3" stopTime="0.00" timeLoss="141.01" rerouteNo="0" devices="tripinfo_free_all_veh_000013" vType="car" speedFactor="1.05" vaporized=""/>
    <tripinfo id="free_all_veh_000040" depart="1.00" departLane="E17_2" departPos="5.10" departSpeed="10.77" departDelay="1.00" arrival="182.00" arrivalLane="-E14_2" arrivalPos="136.40" arrivalSpeed="11.57" duration="181.00" routeLength="485.75" waitingTime="122.00" waitingCount="3" stopTime="0.00" timeLoss="139.74" rerouteNo="0" devices="tripinfo_free_all_veh_000040" vType="car" speedFactor="0.90" vaporized=""/>
    <tripinfo id="free_all_veh_000036" depart="1.00" departLane="E18_1" departPos="5.10" departSpeed="11.46" departDelay="1.00" arrival="183.00" arrivalLane="-E14_2" arrivalPos="136.40" arrivalSpeed="13.12" duration="182.00" routeLength="488.44" waitingTime="123.00" waitingCount="3" stopTime="0.00" timeLoss="145.74" rerouteNo="0" devices="tripinfo_free_all_veh_000036" vType="car" speedFactor="1.02" vaporized=""/>
    <tripinfo id="free_all_veh_000035" depart="0.00" departLane="E18_0" departPos="5.10" departSpeed="13.82" departDelay="0.00" arrival="197.00" arrivalLane="E4_1" arrivalPos="136.40" arrivalSpeed="13.49" duration="197.00" routeLength="491.13" waitingTime="143.00" waitingCount="3" stopTime="0.00" timeLoss="160.15" rerouteNo="0" devices="tripinfo_free_all_veh_000035" vType="car" speedFactor="0.99" vaporized=""/>
    <tripinfo id="free_all_veh_000009" depart="3.00" departLane="E10_1" departPos="5.10" departSpeed="7.39" departDelay="3.00" arrival="199.00" arrivalLane="E4_1" arrivalPos="136.40" arrivalSpeed="11.84" duration="196.00" routeLength="613.81" waitingTime="125.00" waitingCount="3" stopTime="0.00" timeLoss="148.25" rerouteNo="0" devices="tripinfo_free_all_veh_000009" vType="car" speedFactor="0.94" vaporized=""/>
    <tripinfo id="free_all_veh_000003" depart="0.00" departLane="E9_0" departPos="5.10" departSpeed="13.89" departDelay="0.00" arrival="201.00" arrivalLane="E4_1" arrivalPos="136.40" arrivalSpeed="13.10" duration="201.00" routeLength="595.64" waitingTime="127.00" waitingCount="4" stopTime="0.00" timeLoss="156.63" rerouteNo="0" devices="tripinfo_free_all_veh_000003" vType="car" speedFactor="1.01" vaporized=""/>
    <tripinfo id="free_all_veh_000041" depart="2.00" departLane="E17_2" departPos="5.10" departSpeed="6.00" departDelay="2.00" arrival="204.00" arrivalLane="E5_1" arrivalPos="136.40" arrivalSpeed="13.19" duration="202.00" routeLength="595.64" waitingTime="128.00" waitingCount="4" stopTime="0.00" timeLoss="157.27" rerouteNo="0" devices="tripinfo_free_all_veh_000041" vType="car" speedFactor="1.03" vaporized=""/>
    <tripinfo id="free_all_veh_000037" depart="2.00" departLane="E18_1" departPos="5.10" departSpeed="8.03" departDelay="2.00" arrival="206.00" arrivalLane="E5_1" arrivalPos="136.40" arrivalSpeed="12.81" duration="204.00" routeLength="598.33" waitingTime="126.00" waitingCount="4" stopTime="0.00" timeLoss="158.51" rerouteNo="0" devices="tripinfo_free_all_veh_000037" vType="car" speedFactor="0.97" vaporized=""/>
    <tripinfo id="free_all_veh_000028" depart="0.00" departLane="-E3_2" departPos="5.10" departSpeed="13.18" departDelay="0.00" arrival="218.00" arrivalLane="-E17_1" arrivalPos="136.40" arrivalSpeed="12.11" duration="218.00" routeLength="506.61" waitingTime="158.00" waitingCount="3" stopTime="0.00" timeLoss="178.75" rerouteNo="0" devices="tripinfo_free_all_veh_000028" vType="car" speedFactor="0.95" vaporized=""/>
    <tripinfo id="free_all_veh_000063" depart="205.00" departLane="-E4_2" departPos="5.10" departSpeed="13.89" departDelay="0.92" arrival="229.00" arrivalLane="E3_2" arrivalPos="136.40" arrivalSpeed="13.82" duration="24.00" routeLength="292.21" waitingTime="0.00" waitingCount="0" stopTime="0.00" timeLoss="1.61" rerouteNo="0" devices="tripinfo_free_all_veh_000063" vType="car" speedFactor="1.02" vaporized=""/>
    <tripinfo id="free_all_veh_000071" depart="205.00" departLane="-E19_2" departPos="5.10" departSpeed="13.89" departDelay="0.92" arrival="237.00" arrivalLane="-E17_1" arrivalPos="136.40" arrivalSpeed="13.00" duration="32.00" routeLength="399.41" waitingTime="0.00" waitingCount="0" stopTime="0.00" timeLoss="2.01" rerouteNo="0" devices="tripinfo_free_all_veh_000071" vType="car" speedFactor="1.02" vaporized=""/>
    <tripinfo id="free_all_veh_000060" depart="205.00" departLane="-E5_2" departPos="5.10" departSpeed="13.47" departDelay="0.92" arrival="241.00" arrivalLane="E3_1" arrivalPos="136.40" arrivalSpeed="12.45" duration="36.00" routeLength="399.41" waitingTime="0.00" waitingCount="0" stopTime="0.00" timeLoss="4.89" rerouteNo="0" devices="tripinfo_free_all_veh_000060" vType="car" speedFactor="0.97" vaporized=""/>
    <tripinfo id="free_all_veh_000067" depart="205.00" departLane="-E3_0" departPos="5.10" departSpeed="12.60" departDelay="0.92" arrival="241.00" arrivalLane="E4_0" arrivalPos="136.40" arrivalSpeed="11.65" duration="36.00" routeLength="276.73" waitingTime="8.00" waitingCount="1" stopTime="0.00" timeLoss="13.28" rerouteNo="0" devices="tripinfo_free_all_veh_000067" vType="car" speedFactor="0.91" vaporized=""/>
    <tripinfo id="free_all_veh_000068" depart="205.00" departLane="-E3_1" departPos="5.10" departSpeed="12.70" departDelay="0.92" arrival="252.00" arrivalLane="E2_1" arrivalPos="136.40" arrivalSpeed="11.43" duration="47.00" routeLength="402.10" waitingTime="9.00" waitingCount="1" stopTime="0.00" timeLoss="14.57" rerouteNo="0" devices="tripinfo_free_all_veh_000068" vType="car" speedFactor="0.91" vaporized=""/>
    <tripinfo id="free_all_veh_000055" depart="205.00" departLane="-E2_0" departPos="5.10" departSpeed="13.89" departDelay="0.92" arrival="256.00" arrivalLane="-E14_0" arrivalPos="136.40" arrivalSpeed="13.63" duration="51.00" routeLength="365.76" waitingTime="15.00" waitingCount="1" stopTime="0.00" timeLoss="23.54" rerouteNo="0" devices="tripinfo_free_all_veh_000055" vType="car" speedFactor="1.00" vaporized=""/>
    <tripinfo id="free_all_veh_000046" depart="206.00" departLane="E9_0" departPos="5.10" departSpeed="11.25" departDelay="1.92" arrival="263.00" arrivalLane="-E18_1" arrivalPos="136.40" arrivalSpeed="13.29" duration="57.00" routeLength="383.93" waitingTime="13.00" waitingCount="2" stopTime="0.00" timeLoss="28.52" rerouteNo="0" devices="tripinfo_free_all_veh_000046" vType="car" speedFactor="1.09" vaporized=""/>
    <tripinfo id="free_all_veh_000056" depart="205.00" departLane="-E2_1" departPos="5.10" departSpeed="13.83" departDelay="0.92" arrival="268.00" arrivalLane="E4_2" arrivalPos="136.40" arrivalSpeed="13.62" duration="63.00" routeLength="399.41" waitingTime="23.00" waitingCount="2" stopTime="0.00" timeLoss="33.50" rerouteNo="0" devices="tripinfo_free_all_veh_000056" vType="car" speedFactor="1.00" vaporized=""/>
    <tripinfo id="free_all_veh_000045" depart="207.00" departLane="E9_1" departPos="5.10" departSpeed="5.48" departDelay="2.92" arrival="270.00" arrivalLane="-E14_2" arrivalPos="136.40" arrivalSpeed="12.67" duration="63.00" routeLength="399.41" waitingTime="18.00" waitingCount="2" stopTime="0.00" timeLoss="33.79" rerouteNo="0" devices="tripinfo_free_all_veh_000045" vType="car" speedFactor="1.04" vaporized=""/>
    <tripinfo id="free_all_veh_000057" depart="206.00" departLane="-E2_0" departPos="5.10" departSpeed="10.59" departDelay="1.92" arrival="281.00" arrivalLane="-E17_0" arrivalPos="136.40" arrivalSpeed="11.22" duration="75.00" routeLength="577.47" waitingTime="14.00" waitingCount="1" stopTime="0.00" timeLoss="25.74" rerouteNo="0" devices="tripinfo_free_all_veh_000057" vType="car" speedFactor="0.90" vaporized=""/>
    <tripinfo id="free_all_veh_000080" depart="205.00" departLane="E17_1" departPos="5.10" departSpeed="13.89" departDelay="0.92" arrival="285.00" arrivalLane="E3_0" arrivalPos="136.40" arrivalSpeed="12.63" duration="80.00" routeLength="491.13" waitingTime="31.00" waitingCount="2" stopTime="0.00" timeLoss="44.14" rerouteNo="0" devices="tripinfo_free_all_veh_000080" vType="car" speedFactor="1.09" vaporized=""/>
    <tripinfo id="free_all_veh_000074" depart="206.00" departLane="-E19_2" departPos="5.10" departSpeed="10.34" departDelay="1.92" arrival="289.00" arrivalLane="-E10_1" arrivalPos="136.40" arrivalSpeed="12.60" duration="83.00" routeLength="488.44" waitingTime="35.00" waitingCount="1" stopTime="0.00" timeLoss="46.26" rerouteNo="0" devices="tripinfo_free_all_veh_000074" vType="car" speedFactor="1.06" vaporized=""/>
    <tripinfo id="free_all_veh_000079" depart="205.00" departLane="E17_2" departPos="5.10" departSpeed="13.89" departDelay="0.92" arrival="291.00" arrivalLane="-E10_1" arrivalPos="136.40" arrivalSpeed="13.68" duration="86.00" routeLength="399.41" waitingTime="45.00" waitingCount="2" stopTime="0.00" timeLoss="56.08" rerouteNo="0" devices="tripinfo_free_all_veh_000079" vType="car" speedFactor="1.01" vaporized=""/>
    <tripinfo id="free_all_veh_000052" depart="205.00" departLane="E14_2" departPos="5.10" departSpeed="13.89" departDelay="0.92" arrival="293.00" arrivalLane="E5_1" arrivalPos="136.40" arrivalSpeed="13.27" duration="88.00" routeLength="399.41" waitingTime="52.00" waitingCount="1" stopTime="0.00" timeLoss="58.98" rerouteNo="0" devices="tripinfo_free_all_veh_000052" vType="car" speedFactor="1.17" vaporized=""/>
    <tripinfo id="free_all_veh_000058" depart="207.00" departLane="-E2_0" departPos="5.10" departSpeed="5.73" departDelay="2.92" arrival="293.00" arrivalLane="E19_1" arrivalPos="136.40" arrivalSpeed="12.89" duration="86.00" routeLength="488.44" waitingTime="25.00" waitingCount="3" stopTime="0.00" timeLoss="49.31" rerouteNo="0" devices="tripinfo_free_all_veh_000058" vType="car" speedFactor="1.14" vaporized=""/>
    <tripinfo id="free_all_veh_000048" depart="205.00" departLane="E10_2" departPos="5.10" departSpeed="12.51" departDelay="0.92" arrival="297.00" arrivalLane="E5_1" arrivalPos="136.40" arrivalSpeed="11.24" duration="92.00" routeLength="506.61" waitingTime="38.00" waitingCount="2" stopTime="0.00" timeLoss="50.12" rerouteNo="0" devices="tripinfo_free_all_veh_000048" vType="car" speedFactor="0.90" vaporized=""/>
    <tripinfo id="free_all_veh_000043" depart="206.00" departLane="E9_1" departPos="5.10" departSpeed="10.26" departDelay="1.92" arrival="298.00" arrivalLane="E5_1" arrivalPos="136.40" arrivalSpeed="12.80" duration="92.00" routeLength="509.30" waitingTime="38.00" waitingCount="2" stopTime="0.00" timeLoss="55.31" rerouteNo="0" devices="tripinfo_free_all_veh_000043" vType="car" speedFactor="1.09" vaporized=""/>
    <tripinfo id="free_all_veh_000053" depart="205.00" departLane="E14_1" departPos="5.10" departSpeed="13.89" departDelay="0.92" arrival="298.00" arrivalLane="E19_1" arrivalPos="136.40" arrivalSpeed="13.61" duration="93.00" routeLength="402.10" waitingTime="55.00" waitingCount="1" stopTime="0.00" timeLoss="63.20" rerouteNo="0" devices="tripinfo_free_all_veh_000053" vType="car" speedFactor="1.02" vaporized=""/>
    <tripinfo id="free_all_veh_000072" depart="205.00" departLane="-E19_0" departPos="5.10" departSpeed="13.51" departDelay="0.92" arrival="300.00" arrivalLane="E4_1" arrivalPos="136.40" arrivalSpeed="13.25" duration="95.00" routeLength="383.93" waitingTime="59.00" waitingCount="1" stopTime="0.00" timeLoss="65.28" rerouteNo="0" devices="tripinfo_free_all_veh_000072" vType="car" speedFactor="0.97" vaporized=""/>
    <tripinfo id="free_all_veh_000073" depart="205.00" departLane="-E19_1" departPos="5.10" departSpeed="13.06" departDelay="0.92" arrival="311.00" arrivalLane="E5_1" arrivalPos="136.40" arrivalSpeed="12.60" duration="106.00" routeLength="491.13" waitingTime="58.00" waitingCount="1" stopTime="0.00" timeLoss="67.20" rerouteNo="0" devices="tripinfo_free_all_veh_000073" vType="car" speedFactor="0.94" vaporized=""/>
    <tripinfo id="free_all_veh_000075" depart="205.00" departLane="E18_1" departPos="5.10" departSpeed="13.27" departDelay="0.92" arrival="316.00" arrivalLane="-E9_2" arrivalPos="136.40" arrivalSpeed="12.51" duration="111.00" routeLength="399.41" waitingTime="68.00" waitingCount="2" stopTime="0.00" timeLoss="80.01" rerouteNo="0" devices="tripinfo_free_all_veh_000075" vType="car" speedFactor="0.96" vaporized=""/>
    <tripinfo id="free_all_veh_000070" depart="206.00" departLane="-E3_1" departPos="5.10" departSpeed="10.15" departDelay="1.92" arrival="332.00" arrivalLane="-E14_0" arrivalPos="136.40" arrivalSpeed="12.84" duration="126.00" routeLength="488.44" waitingTime="72.00" waitingCount="3" stopTime="0.00" timeLoss="89.49" rerouteNo="0" devices="tripinfo_free_all_veh_000070" vType="car" speedFactor="1.02" vaporized=""/>
    <tripinfo id="free_all_veh_000059" depart="205.00" departLane="-E5_1" departPos="5.10" departSpeed="13.89" departDelay="0.92" arrival="335.00" arrivalLane="-E14_0" arrivalPos="136.40" arrivalSpeed="12.87" duration="130.00" routeLength="383.93" waitingTime="89.00" waitingCount="2" stopTime="0.00" timeLoss="101.29" rerouteNo="0" devices="tripinfo_free_all_veh_000059" vType="car" speedFactor="1.02" vaporized=""/>
    <tripinfo id="free_all_veh_000047" depart="205.00" departLane="E10_1" departPos="5.10" departSpeed="13.85" departDelay="0.92" arrival="336.00" arrivalLane="E19_0" arrivalPos="136.40" arrivalSpeed="13.27" duration="131.00" routeLength="488.44" waitingTime="81.00" waitingCount="2" stopTime="0.00" timeLoss="94.33" rerouteNo="0" devices="tripinfo_free_all_veh_000047" vType="car" speedFactor="1.00" vaporized=""/>
    <tripinfo id="free_all_veh_000051" depart="205.00" departLane="E14_0" departPos="5.10" departSpeed="11.87" departDelay="0.92" arrival="336.00" arrivalLane="-E9_1" arrivalPos="136.40" arrivalSpeed="11.61" duration="131.00" routeLength="383.93" waitingTime="87.00" waitingCount="2" stopTime="0.00" timeLoss="97.21" rerouteNo="0" devices="tripinfo_free_all_veh_000051" vType="car" speedFactor="0.85" vaporized=""/>
    <tripinfo id="free_all_veh_000066" depart="206.00" departLane="-E4_0" departPos="5.10" departSpeed="10.42" departDelay="1.92" arrival="340.00" arrivalLane="E2_1" arrivalPos="136.40" arrivalSpeed="12.25" duration="134.00" routeLength="383.93" waitingTime="88.00" waitingCount="2" stopTime="0.00" timeLoss="101.71" rerouteNo="0" devices="tripinfo_free_all_veh_000066" vType="car" speedFactor="0.88" vaporized=""/>
    <tripinfo id="free_all_veh_000049" depart="206.00" departLane="E10_1" departPos="5.10" departSpeed="10.09" departDelay="1.92" arrival="353.00" arrivalLane="-E17_0" arrivalPos="136.40" arrivalSpeed="11.86" duration="147.00" routeLength="383.93" waitingTime="102.00" waitingCount="2" stopTime="0.00" timeLoss="114.30" rerouteNo="0" devices="tripinfo_free_all_veh_000049" vType="car" speedFactor="0.88" vaporized=""/>
    <tripinfo id="free_all_veh_000054" depart="206.00" departLane="E14_2" departPos="5.10" departSpeed="11.07" departDelay="1.92" arrival="359.00" arrivalLane="E4_2" arrivalPos="136.40" arrivalSpeed="13.57" duration="153.00" routeLength="485.75" waitingTime="102.00" waitingCount="2" stopTime="0.00" timeLoss="115.87" rerouteNo="0" devices="tripinfo_free_all_veh_000054" vType="car" speedFactor="1.10" vaporized=""/>
    <tripinfo id="free_all_veh_000081" depart="206.00" departLane="E17_2" departPos="5.10" departSpeed="10.18" departDelay="1.92" arrival="360.00" arrivalLane="-E14_2" arrivalPos="136.40" arrivalSpeed="13.29" duration="154.00" routeLength="485.75" waitingTime="98.00" waitingCount="3" stopTime="0.00" timeLoss="117.34" rerouteNo="0" devices="tripinfo_free_all_veh_000081" vType="car" speedFactor="1.03" vaporized=""/>