<?xml version="1.0" encoding="UTF-8"?>

<!-- generated on 2026-07-17 17:25:45 by Eclipse SUMO sumo Version 1.19.0
<configuration xmlns:xsi="http://www.w3.org/2001/XMLSchema-instance" xsi:noNamespaceSchemaLocation="http://sumo.dlr.de/xsd/sumoConfiguration.xsd">

    <input>
        <net-file value="test_random_offsets_seed20260708.net.xml"/>
        <route-files value="east_bottleneck_no_change.rou.xml"/>
    </input>

    <output>
        <tripinfo-output value="tripinfo_east_bottleneck_no_change.xml"/>
    </output>

    <time>
        <begin value="0"/>
    </time>

    <report>
        <duration-log.statistics value="true"/>
        <no-step-log value="true"/>
    </report>

</configuration>
-->

<tripinfos xmlns:xsi="http://www.w3.org/2001/XMLSchema-instance" xsi:noNamespaceSchemaLocation="http://sumo.dlr.de/xsd/tripinfo_file.xsd">
    <tripinfo id="east_bottleneck_veh_000005" depart="0.00" departLane="-E4_2" departPos="5.10" departSpeed="13.89" departDelay="0.00" arrival="43.00" arrivalLane="E3_2" arrivalPos="136.40" arrivalSpeed="12.95" duration="43.00" routeLength="292.21" waitingTime="16.00" waitingCount="1" stopTime="0.00" timeLoss="21.38" rerouteNo="0" devices="tripinfo_east_bottleneck_veh_000005" vType="car" speedFactor="1.03" vaporized=""/>
    <tripinfo id="east_bottleneck_veh_000013" depart="30.00" departLane="-E4_2" departPos="5.10" departSpeed="13.89" departDelay="0.00" arrival="54.00" arrivalLane="E3_2" arrivalPos="136.40" arrivalSpeed="13.16" duration="24.00" routeLength="292.21" waitingTime="0.00" waitingCount="0" stopTime="0.00" timeLoss="1.64" rerouteNo="0" devices="tripinfo_east_bottleneck_veh_000013" vType="car" speedFactor="1.05" vaporized=""/>
    <tripinfo id="east_bottleneck_veh_000002" depart="0.00" departLane="-E5_2" departPos="5.10" departSpeed="13.03" departDelay="0.00" arrival="60.00" arrivalLane="E3_1" arrivalPos="136.40" arrivalSpeed="12.51" duration="60.00" routeLength="399.41" waitingTime="21.00" waitingCount="1" stopTime="0.00" timeLoss="28.79" rerouteNo="0" devices="tripinfo_east_bottleneck_veh_000002" vType="car" speedFactor="0.94" vaporized=""/>
    <tripinfo id="east_bottleneck_veh_000001" depart="0.00" departLane="-E5_1" departPos="5.10" departSpeed="13.89" departDelay="0.00" arrival="62.00" arrivalLane="-E14_0" arrivalPos="136.40" arrivalSpeed="13.49" duration="62.00" routeLength="383.93" waitingTime="28.00" waitingCount="1" stopTime="0.00" timeLoss="33.70" rerouteNo="0" devices="tripinfo_east_bottleneck_veh_000001" vType="car" speedFactor="1.06" vaporized=""/>
    <tripinfo id="east_bottleneck_veh_000010" depart="30.00" departLane="-E5_2" departPos="5.10" departSpeed="11.90" departDelay="0.00" arrival="68.00" arrivalLane="E3_1" arrivalPos="136.40" arrivalSpeed="11.52" duration="38.00" routeLength="399.41" waitingTime="0.00" waitingCount="0" stopTime="0.00" timeLoss="2.98" rerouteNo="0" devices="tripinfo_east_bottleneck_veh_000010" vType="car" speedFactor="0.86" vaporized=""/>
    <tripinfo id="east_bottleneck_veh_000008" depart="1.00" departLane="-E4_0" departPos="5.10" departSpeed="8.19" departDelay="1.00" arrival="70.00" arrivalLane="E2_1" arrivalPos="136.40" arrivalSpeed="12.23" duration="69.00" routeLength="383.93" waitingTime="27.00" waitingCount="1" stopTime="0.00" timeLoss="36.96" rerouteNo="0" devices="tripinfo_east_bottleneck_veh_000008" vType="car" speedFactor="0.89" vaporized=""/>
    <tripinfo id="east_bottleneck_veh_000007" depart="0.00" departLane="-E4_1" departPos="5.10" departSpeed="13.89" departDelay="0.00" arrival="75.00" arrivalLane="-E18_2" arrivalPos="136.40" arrivalSpeed="12.64" duration="75.00" routeLength="506.61" waitingTime="32.00" waitingCount="1" stopTime="0.00" timeLoss="37.77" rerouteNo="0" devices="tripinfo_east_bottleneck_veh_000007" vType="car" speedFactor="1.05" vaporized=""/>
    <tripinfo id="east_bottleneck_veh_000003" depart="1.00" departLane="-E5_1" departPos="5.10" departSpeed="10.78" departDelay="1.00" arrival="99.00" arrivalLane="-E18_1" arrivalPos="136.40" arrivalSpeed="13.83" duration="98.00" routeLength="613.81" waitingTime="42.00" waitingCount="2" stopTime="0.00" timeLoss="52.42" rerouteNo="0" devices="tripinfo_east_bottleneck_veh_000003" vType="car" speedFactor="1.01" vaporized=""/>
    <tripinfo id="east_bottleneck_veh_000004" depart="2.00" departLane="-E5_1" departPos="5.10" departSpeed="7.03" departDelay="2.00" arrival="112.00" arrivalLane="E19_1" arrivalPos="136.40" arrivalSpeed="13.58" duration="110.00" routeLength="506.61" waitingTime="58.00" waitingCount="2" stopTime="0.00" timeLoss="72.91" rerouteNo="0" devices="tripinfo_east_bottleneck_veh_000004" vType="car" speedFactor="1.08" vaporized=""/>
    <tripinfo id="east_bottleneck_veh_000021" depart="60.00" departLane="-E4_2" departPos="5.10" departSpeed="13.89" departDelay="0.00" arrival="133.00" arrivalLane="E3_2" arrivalPos="136.40" arrivalSpeed="13.00" duration="73.00" routeLength="292.21" waitingTime="46.00" waitingCount="1" stopTime="0.00" timeLoss="51.48" rerouteNo="0" devices="tripinfo_east_bottleneck_veh_000021" vType="car" speedFactor="1.02" vaporized=""/>
    <tripinfo id="east_bottleneck_veh_000029" depart="90.00" departLane="-E4_2" departPos="5.10" departSpeed="13.89" departDelay="0.00" arrival="136.00" arrivalLane="E3_2" arrivalPos="136.40" arrivalSpeed="13.29" duration="46.00" routeLength="292.21" waitingTime="18.00" waitingCount="1" stopTime="0.00" timeLoss="23.78" rerouteNo="0" devices="tripinfo_east_bottleneck_veh_000029" vType="car" speedFactor="1.13" vaporized=""/>
    <tripinfo id="east_bottleneck_veh_000037" depart="120.00" departLane="-E4_2" departPos="5.10" departSpeed="13.52" departDelay="0.00" arrival="144.00" arrivalLane="E3_2" arrivalPos="136.40" arrivalSpeed="13.33" duration="24.00" routeLength="292.21" waitingTime="0.00" waitingCount="0" stopTime="0.00" timeLoss="1.28" rerouteNo="0" devices="tripinfo_east_bottleneck_veh_000037" vType="car" speedFactor="0.97" vaporized=""/>
    <tripinfo id="east_bottleneck_veh_000018" depart="60.00" departLane="-E5_2" departPos="5.10" departSpeed="13.08" departDelay="0.00" arrival="150.00" arrivalLane="E3_1" arrivalPos="136.40" arrivalSpeed="12.57" duration="90.00" routeLength="399.41" waitingTime="52.00" waitingCount="1" stopTime="0.00" timeLoss="58.90" rerouteNo="0" devices="tripinfo_east_bottleneck_veh_000018" vType="car" speedFactor="0.94" vaporized=""/>
    <tripinfo id="east_bottleneck_veh_000006" depart="0.00" departLane="-E4_0" departPos="5.10" departSpeed="11.54" departDelay="0.00" arrival="154.00" arrivalLane="-E14_0" arrivalPos="136.40" arrivalSpeed="11.46" duration="154.00" routeLength="470.27" waitingTime="97.00" waitingCount="2" stopTime="0.00" timeLoss="110.97" rerouteNo="0" devices="tripinfo_east_bottleneck_veh_000006" vType="car" speedFactor="0.83" vaporized=""/>
    <tripinfo id="east_bottleneck_veh_000026" depart="90.00" departLane="-E5_2" departPos="5.10" departSpeed="12.12" departDelay="0.00" arrival="154.00" arrivalLane="E3_1" arrivalPos="136.40" arrivalSpeed="11.02" duration="64.00" routeLength="399.41" waitingTime="23.00" waitingCount="1" stopTime="0.00" timeLoss="29.92" rerouteNo="0" devices="tripinfo_east_bottleneck_veh_000026" vType="car" speedFactor="0.87" vaporized=""/>
    <tripinfo id="east_bottleneck_veh_000009" depart="30.00" departLane="-E5_1" departPos="5.10" departSpeed="13.03" departDelay="0.00" arrival="156.00" arrivalLane="-E14_0" arrivalPos="136.40" arrivalSpeed="11.81" duration="126.00" routeLength="383.93" waitingTime="83.00" waitingCount="2" stopTime="0.00" timeLoss="95.60" rerouteNo="0" devices="tripinfo_east_bottleneck_veh_000009" vType="car" speedFactor="0.94" vaporized=""/>
    <tripinfo id="east_bottleneck_veh_000034" depart="120.00" departLane="-E5_2" departPos="5.10" departSpeed="13.89" departDelay="0.00" arrival="156.00" arrivalLane="E3_1" arrivalPos="136.40" arrivalSpeed="12.65" duration="36.00" routeLength="399.41" waitingTime="0.00" waitingCount="0" stopTime="0.00" timeLoss="6.35" rerouteNo="0" devices="tripinfo_east_bottleneck_veh_000034" vType="car" speedFactor="1.17" vaporized=""/>
    <tripinfo id="east_bottleneck_veh_000016" depart="31.00" departLane="-E4_0" departPos="5.10" departSpeed="10.58" departDelay="1.00" arrival="159.00" arrivalLane="E2_1" arrivalPos="136.40" arrivalSpeed="12.38" duration="128.00" routeLength="383.93" waitingTime="84.00" waitingCount="2" stopTime="0.00" timeLoss="96.95" rerouteNo="0" devices="tripinfo_east_bottleneck_veh_000016" vType="car" speedFactor="0.93" vaporized=""/>
    <tripinfo id="east_bottleneck_veh_000017" depart="60.00" departLane="-E5_1" departPos="5.10" departSpeed="12.20" departDelay="0.00" arrival="159.00" arrivalLane="-E14_0" arrivalPos="136.40" arrivalSpeed="11.75" duration="99.00" routeLength="383.93" waitingTime="51.00" waitingCount="2" stopTime="0.00" timeLoss="66.25" rerouteNo="0" devices="tripinfo_east_bottleneck_veh_000017" vType="car" speedFactor="0.88" vaporized=""/>
    <tripinfo id="east_bottleneck_veh_000024" depart="61.00" departLane="-E4_0" departPos="5.10" departSpeed="10.41" departDelay="1.00" arrival="162.00" arrivalLane="E2_1" arrivalPos="136.40" arrivalSpeed="11.99" duration="101.00" routeLength="383.93" waitingTime="55.00" waitingCount="2" stopTime="0.00" timeLoss="68.29" rerouteNo="0" devices="tripinfo_east_bottleneck_veh_000024" vType="car" speedFactor="0.89" vaporized=""/>
    <tripinfo id="east_bottleneck_veh_000025" depart="90.00" departLane="-E5_1" departPos="5.10" departSpeed="11.47" departDelay="0.00" arrival="163.00" arrivalLane="-E14_0" arrivalPos="136.40" arrivalSpeed="10.37" duration="73.00" routeLength="383.93" waitingTime="24.00" waitingCount="2" stopTime="0.00" timeLoss="38.55" rerouteNo="0" devices="tripinfo_east_bottleneck_veh_000025" vType="car" speedFactor="0.83" vaporized=""/>
    <tripinfo id="east_bottleneck_veh_000032" depart="91.00" departLane="-E4_0" departPos="5.10" departSpeed="9.24" departDelay="1.00" arrival="163.00" arrivalLane="E2_1" arrivalPos="136.40" arrivalSpeed="13.88" duration="72.00" routeLength="383.93" waitingTime="30.00" waitingCount="1" stopTime="0.00" timeLoss="43.86" rerouteNo="0" devices="tripinfo_east_bottleneck_veh_000032" vType="car" speedFactor="1.15" vaporized=""/>
    <tripinfo id="east_bottleneck_veh_000015" depart="30.00" departLane="-E4_1" departPos="5.10" departSpeed="13.77" departDelay="0.00" arrival="166.00" arrivalLane="-E18_2" arrivalPos="136.40" arrivalSpeed="12.77" duration="136.00" routeLength="506.61" waitingTime="85.00" waitingCount="2" stopTime="0.00" timeLoss="98.46" rerouteNo="0" devices="tripinfo_east_bottleneck_veh_000015" vType="car" speedFactor="0.99" vaporized=""/>
    <tripinfo id="east_bottleneck_veh_000011" depart="31.00" departLane="-E5_1" departPos="5.10" departSpeed="10.08" departDelay="1.00" arrival="189.00" arrivalLane="-E18_1" arrivalPos="136.40" arrivalSpeed="13.37" duration="158.00" routeLength="613.81" waitingTime="91.00" waitingCount="3" stopTime="0.00" timeLoss="112.54" rerouteNo="0" devices="tripinfo_east_bottleneck_veh_000011" vType="car" speedFactor="1.09" vaporized=""/>
    <tripinfo id="east_bottleneck_veh_000019" depart="61.00" departLane="-E5_1" departPos="5.10" departSpeed="9.68" departDelay="1.00" arrival="192.00" arrivalLane="-E18_1" arrivalPos="136.40" arrivalSpeed="12.90" duration="131.00" routeLength="613.81" waitingTime="59.00" waitingCount="3" stopTime="0.00" timeLoss="82.90" rerouteNo="0" devices="tripinfo_east_bottleneck_veh_000019" vType="car" speedFactor="0.94" vaporized=""/>
    <tripinfo id="east_bottleneck_veh_000027" depart="91.00" departLane="-E5_1" departPos="5.10" departSpeed="7.49" departDelay="1.00" arrival="195.00" arrivalLane="-E18_1" arrivalPos="136.40" arrivalSpeed="12.58" duration="104.00" routeLength="613.81" waitingTime="31.00" waitingCount="3" stopTime="0.00" timeLoss="54.57" rerouteNo="0" devices="tripinfo_east_bottleneck_veh_000027" vType="car" speedFactor="0.92" vaporized=""/>
    <tripinfo id="east_bottleneck_veh_000012" depart="32.00" departLane="-E5_1" departPos="5.10" departSpeed="6.57" departDelay="2.00" arrival="202.00" arrivalLane="E19_1" arrivalPos="136.40" arrivalSpeed="13.54" duration="170.00" routeLength="506.61" waitingTime="110.00" waitingCount="3" stopTime="0.00" timeLoss="132.74" rerouteNo="0" devices="tripinfo_east_bottleneck_veh_000012" vType="car" speedFactor="1.03" vaporized=""/>
    <tripinfo id="east_bottleneck_veh_000020" depart="62.00" departLane="-E5_1" departPos="5.10" departSpeed="5.27" departDelay="2.00" arrival="204.00" arrivalLane="E19_1" arrivalPos="136.40" arrivalSpeed="12.60" duration="142.00" routeLength="506.61" waitingTime="80.00" waitingCount="3" stopTime="0.00" timeLoss="104.94" rerouteNo="0" devices="tripinfo_east_bottleneck_veh_000020" vType="car" speedFactor="1.16" vaporized=""/>
    <tripinfo id="east_bottleneck_veh_000028" depart="93.00" departLane="-E5_1" departPos="5.10" departSpeed="8.48" departDelay="3.00" arrival="206.00" arrivalLane="E19_1" arrivalPos="136.40" arrivalSpeed="12.97" duration="113.00" routeLength="506.61" waitingTime="50.00" waitingCount="3" stopTime="0.00" timeLoss="73.94" rerouteNo="0" devices="tripinfo_east_bottleneck_veh_000028" vType="car" speedFactor="0.95" vaporized=""/>
    <tripinfo id="east_bottleneck_veh_000045" depart="150.00" departLane="-E4_2" departPos="5.10" departSpeed="13.89" departDelay="0.00" arrival="224.00" arrivalLane="E3_2" arrivalPos="136.40" arrivalSpeed="13.05" duration="74.00" routeLength="292.21" waitingTime="46.00" waitingCount="1" stopTime="0.00" timeLoss="51.93" rerouteNo="0" devices="tripinfo_east_bottleneck_veh_000045" vType="car" speedFactor="1.04" vaporized=""/>
    <tripinfo id="east_bottleneck_veh_000053" depart="180.00" departLane="-E4_2" departPos="5.10" departSpeed="13.89" departDelay="0.00" arrival="226.00" arrivalLane="E3_2" arrivalPos="136.40" arrivalSpeed="12.83" duration="46.00" routeLength="292.21" waitingTime="15.00" waitingCount="1" stopTime="0.00" timeLoss="23.75" rerouteNo="0" devices="tripinfo_east_bottleneck_veh_000053" vType="car" speedFactor="1.02" vaporized=""/>
    <tripinfo id="east_bottleneck_veh_000061" depart="210.00" departLane="-E4_2" departPos="5.10" departSpeed="13.89" departDelay="0.00" arrival="233.00" arrivalLane="E3_2" arrivalPos="136.40" arrivalSpeed="13.53" duration="23.00" routeLength="292.21" waitingTime="0.00" waitingCount="0" stopTime="0.00" timeLoss="1.37" rerouteNo="0" devices="tripinfo_east_bottleneck_veh_000061" vType="car" speedFactor="1.08" vaporized=""/>
    <tripinfo id="east_bottleneck_veh_000042" depart="150.00" departLane="-E5_2" departPos="5.10" departSpeed="13.29" departDelay="0.00" arrival="240.00" arrivalLane="E3_1" arrivalPos="136.40" arrivalSpeed="13.07" duration="90.00" routeLength="399.41" waitingTime="51.00" waitingCount="1" stopTime="0.00" timeLoss="59.26" rerouteNo="0" devices="tripinfo_east_bottleneck_veh_000042" vType="car" speedFactor="0.96" vaporized=""/>
    <tripinfo id="east_bottleneck_veh_000014" depart="30.00" departLane="-E4_0" departPos="5.10" departSpeed="13.89" departDelay="0.00" arrival="242.00" arrivalLane="-E14_0" arrivalPos="136.40" arrivalSpeed="13.14" duration="212.00" routeLength="470.27" waitingTime="161.00" waitingCount="3" stopTime="0.00" timeLoss="177.08" rerouteNo="0" devices="tripinfo_east_bottleneck_veh_000014" vType="car" speedFactor="1.12" vaporized=""/>
    <tripinfo id="east_bottleneck_veh_000022" depart="60.00" departLane="-E4_0" departPos="5.10" departSpeed="13.89" departDelay="0.00" arrival="245.00" arrivalLane="-E14_0" arrivalPos="136.40" arrivalSpeed="12.68" duration="185.00" routeLength="470.27" waitingTime="129.00" waitingCount="3" stopTime="0.00" timeLoss="148.66" rerouteNo="0" devices="tripinfo_east_bottleneck_veh_000022" vType="car" speedFactor="1.01" vaporized=""/>
    <tripinfo id="east_bottleneck_veh_000050" depart="180.00" departLane="-E5_2" departPos="5.10" departSpeed="11.81" departDelay="0.00" arrival="245.00" arrivalLane="E3_1" arrivalPos="136.40" arrivalSpeed="11.31" duration="65.00" routeLength="399.41" waitingTime="22.00" waitingCount="1" stopTime="0.00" timeLoss="29.91" rerouteNo="0" devices="tripinfo_east_bottleneck_veh_000050" vType="car" speedFactor="0.85" vaporized=""/>
    <tripinfo id="east_bottleneck_veh_000023" depart="60.00" departLane="-E4_1" departPos="5.10" departSpeed="13.54" departDelay="0.00" arrival="246.00" arrivalLane="-E18_2" arrivalPos="136.40" arrivalSpeed="12.91" duration="186.00" routeLength="506.61" waitingTime="126.00" waitingCount="3" stopTime="0.00" timeLoss="147.03" rerouteNo="0" devices="tripinfo_east_bottleneck_veh_000023" vType="car" speedFactor="0.97" vaporized=""/>
    <tripinfo id="east_bottleneck_veh_000031" depart="90.00" departLane="-E4_1" departPos="5.10" departSpeed="13.89" departDelay="0.00" arrival="247.00" arrivalLane="-E18_2" arrivalPos="136.40" arrivalSpeed="12.82" duration="157.00" routeLength="506.61" waitingTime="105.00" waitingCount="2" stopTime="0.00" timeLoss="120.10" rerouteNo="0" devices="tripinfo_east_bottleneck_veh_000031" vType="car" speedFactor="1.18" vaporized=""/>
    <tripinfo id="east_bottleneck_veh_000058" depart="210.00" departLane="-E5_2" departPos="5.10" departSpeed="13.89" departDelay="0.00" arrival="247.00" arrivalLane="E3_1" arrivalPos="136.40" arrivalSpeed="13.49" duration="37.00" routeLength="399.41" waitingTime="0.00" waitingCount="0" stopTime="0.00" timeLoss="6.97" rerouteNo="0" devices="tripinfo_east_bottleneck_veh_000058" vType="car" speedFactor="1.14" vaporized=""/>
    <tripinfo id="east_bottleneck_veh_000030" depart="90.00" departLane="-E4_0" departPos="5.10" departSpeed="12.94" departDelay="0.00" arrival="248.00" arrivalLane="-E14_0" arrivalPos="136.40" arrivalSpeed="11.97" duration="158.00" routeLength="470.27" waitingTime="102.00" waitingCount="2" stopTime="0.00" timeLoss="119.57" rerouteNo="0" devices="tripinfo_east_bottleneck_veh_000030" vType="car" speedFactor="0.93" vaporized=""/>
    <tripinfo id="east_bottleneck_veh_000040" depart="121.00" departLane="-E4_0" departPos="5.10" departSpeed="10.69" departDelay="1.00" arrival="250.00" arrivalLane="E2_1" arrivalPos="136.40" arrivalSpeed="12.49" duration="129.00" routeLength="383.93" waitingTime="84.00" waitingCount="2" stopTime="0.00" timeLoss="97.35" rerouteNo="0" devices="tripinfo_east_bottleneck_veh_000040" vType="car" speedFactor="0.90" vaporized=""/>
    <tripinfo id="east_bottleneck_veh_000033" depart="120.00" departLane="-E5_1" departPos="5.10" departSpeed="13.89" departDelay="0.00" arrival="251.00" arrivalLane="-E14_0" arrivalPos="136.40" arrivalSpeed="13.36" duration="131.00" routeLength="383.93" waitingTime="87.00" waitingCount="2" stopTime="0.00" timeLoss="101.52" rerouteNo="0" devices="tripinfo_east_bottleneck_veh_000033" vType="car" speedFactor="1.01" vaporized=""/>
    <tripinfo id="east_bottleneck_veh_000048" depart="151.00" departLane="-E4_0" departPos="5.10" departSpeed="11.33" departDelay="1.00" arrival="252.00" arrivalLane="E2_1" arrivalPos="136.40" arrivalSpeed="11.31" duration="101.00" routeLength="383.93" waitingTime="53.00" waitingCount="2" stopTime="0.00" timeLoss="69.73" rerouteNo="0" devices="tripinfo_east_bottleneck_veh_000048" vType="car" speedFactor="0.90" vaporized=""/>
    <tripinfo id="east_bottleneck_veh_000041" depart="150.00" departLane="-E5_1" departPos="5.10" departSpeed="13.89" departDelay="0.00" arrival="253.00" arrivalLane="-E14_0" arrivalPos="136.40" arrivalSpeed="12.82" duration="103.00" routeLength="383.93" waitingTime="57.00" waitingCount="2" stopTime="0.00" timeLoss="74.13" rerouteNo="0" devices="tripinfo_east_bottleneck_veh_000041" vType="car" speedFactor="1.03" vaporized=""/>
    <tripinfo id="east_bottleneck_veh_000056" depart="181.00" departLane="-E4_0" departPos="5.10" departSpeed="10.33" departDelay="1.00" arrival="254.00" arrivalLane="E2_1" arrivalPos="136.40" arrivalSpeed="13.40" duration="73.00" routeLength="383.93" waitingTime="29.00" waitingCount="1" stopTime="0.00" timeLoss="44.27" rerouteNo="0" devices="tripinfo_east_bottleneck_veh_000056" vType="car" speedFactor="1.00" vaporized=""/>
    <tripinfo id="east_bottleneck_veh_000039" depart="120.00" departLane="-E4_1" departPos="5.10" departSpeed="13.89" departDelay="0.00" arrival="256.00" arrivalLane="-E18_2" arrivalPos="136.40" arrivalSpeed="13.62" duration="136.00" routeLength="506.61" waitingTime="83.00" waitingCount="2" stopTime="0.00" timeLoss="98.35" rerouteNo="0" devices="tripinfo_east_bottleneck_veh_000039" vType="car" speedFactor="1.10" vaporized=""/>
    <tripinfo id="east_bottleneck_veh_000049" depart="180.00" departLane="-E5_1" departPos="5.10" departSpeed="12.18" departDelay="0.00" arrival="257.00" arrivalLane="-E14_0" arrivalPos="136.40" arrivalSpeed="11.93" duration="77.00" routeLength="383.93" waitingTime="25.00" waitingCount="2" stopTime="0.00" timeLoss="44.28" rerouteNo="0" devices="tripinfo_east_bottleneck_veh_000049" vType="car" speedFactor="0.88" vaporized=""/>
    <tripinfo id="east_bottleneck_veh_000047" depart="150.00" departLane="-E4_1" departPos="5.10" departSpeed="13.85" departDelay="0.00" arrival="258.00" arrivalLane="-E18_2" arrivalPos="136.40" arrivalSpeed="13.39" duration="108.00" routeLength="506.61" waitingTime="56.00" waitingCount="2" stopTime="0.00" timeLoss="70.31" rerouteNo="0" devices="tripinfo_east_bottleneck_veh_000047" vType="car" speedFactor="1.00" vaporized=""/>
    <tripinfo id="east_bottleneck_veh_000035" depart="121.00" departLane="-E5_1" departPos="5.10" departSpeed="11.13" departDelay="1.00" arrival="279.00" arrivalLane="-E18_1" arrivalPos="136.40" arrivalSpeed="12.89" duration="158.00" routeLength="613.81" waitingTime="94.00" waitingCount="3" stopTime="0.00" timeLoss="112.60" rerouteNo="0" devices="tripinfo_east_bottleneck_veh_000035" vType="car" speedFactor="0.99" vaporized=""/>
    <tripinfo id="east_bottleneck_veh_000043" depart="151.00" departLane="-E5_1" departPos="5.10" departSpeed="11.47" departDelay="1.00" arrival="281.00" arrivalLane="-E18_1" arrivalPos="136.40" arrivalSpeed="12.63" duration="130.00" routeLength="613.81" waitingTime="63.00" waitingCount="3" stopTime="0.00" timeLoss="84.73" rerouteNo="0" devices="tripinfo_east_bottleneck_veh_000043" vType="car" speedFactor="1.09" vaporized=""/>
    <tripinfo id="east_bottleneck_veh_000051" depart="181.00" departLane="-E5_1" departPos="5.10" departSpeed="8.58" departDelay="1.00" arrival="287.00" arrivalLane="-E18_1" arrivalPos="136.40" arrivalSpeed="10.98" duration="106.00" routeLength="613.81" waitingTime="29.00" waitingCount="3" stopTime="0.00" timeLoss="53.09" rerouteNo="0" devices="tripinfo_east_bottleneck_veh_000051" vType="car" speedFactor="0.85" vaporized=""/>
    <tripinfo id="east_bottleneck_veh_000036" depart="122.00" departLane="-E5_1" departPos="5.10" departSpeed="8.31" departDelay="2.00" arrival="292.00" arrivalLane="E19_1" arrivalPos="136.40" arrivalSpeed="13.71" duration="170.00" routeLength="506.61" waitingTime="110.00" waitingCount="3" stopTime="0.00" timeLoss="132.68" rerouteNo="0" devices="tripinfo_east_bottleneck_veh_000036" vType="car" speedFactor="1.02" vaporized=""/>
    <tripinfo id="east_bottleneck_veh_000044" depart="152.00" departLane="-E5_1" departPos="5.10" departSpeed="7.65" departDelay="2.00" arrival="294.00" arrivalLane="E19_1" arrivalPos="136.40" arrivalSpeed="12.71" duration="142.00" routeLength="506.61" waitingTime="80.00" waitingCount="3" stopTime="0.00" timeLoss="104.78" rerouteNo="0" devices="tripinfo_east_bottleneck_veh_000044" vType="car" speedFactor="1.04" vaporized=""/>
    <tripinfo id="east_bottleneck_veh_000052" depart="182.00" departLane="-E5_1" departPos="5.10" departSpeed="4.57" departDelay="2.00" arrival="296.00" arrivalLane="E19_1" arrivalPos="136.40" arrivalSpeed="13.65" duration="114.00" routeLength="506.61" waitingTime="50.00" waitingCount="3" stopTime="0.00" timeLoss="76.84" rerouteNo="0" devices="tripinfo_east_bottleneck_veh_000052" vType="car" speedFactor="1.17" vaporized=""/>
    <tripinfo id="east_bottleneck_veh_000069" depart="240.00" departLane="-E4_2" departPos="5.10" departSpeed="13.89" departDelay="0.00" arrival="314.00" arrivalLane="E3_2" arrivalPos="136.40" arrivalSpeed="13.08" duration="74.00" routeLength="292.21" waitingTime="45.00" waitingCount="1" stopTime="0.00" timeLoss="52.24" rerouteNo="0" devices="tripinfo_east_bottleneck_veh_000069" vType="car" speedFactor="1.04" vaporized=""/>
    <tripinfo id="east_bottleneck_veh_000077" depart="270.00" departLane="-E4_2" departPos="5.10" departSpeed="13.89" departDelay="0.00" arrival="316.00" arrivalLane="E3_2" arrivalPos="136.40" arrivalSpeed="12.61" duration="46.00" routeLength="292.21" waitingTime="17.00" waitingCount="1" stopTime="0.00" timeLoss="24.39" rerouteNo="0" devices="tripinfo_east_bottleneck_veh_000077" vType="car" speedFactor="1.03" vaporized=""/>
    <tripinfo id="east_bottleneck_veh_000085" depart="300.00" departLane="-E4_2" departPos="5.10" departSpeed="13.89" departDelay="0.00" arrival="323.00" arrivalLane="E3_2" arrivalPos="136.40" arrivalSpeed="13.51" duration="23.00" routeLength="292.21" waitingTime="0.00" waitingCount="0" stopTime="0.00" timeLoss="1.23" rerouteNo="0" devices="tripinfo_east_bottleneck_veh_000085" vType="car" speedFactor="1.15" vaporized=""/>
    <tripinfo id="east_bottleneck_veh_000038" depart="120.00" departLane="-E4_0" departPos="5.10" departSpeed="13.89" departDelay="0.00" arrival="332.00" arrivalLane="-E14_0" arrivalPos="136.40" arrivalSpeed="12.93" duration="212.00" routeLength="470.27" waitingTime="159.00" waitingCount="3" stopTime="0.00" timeLoss="177.09" rerouteNo="0" devices="tripinfo_east_bottleneck_veh_000038" vType="car" speedFactor="1.18" vaporized=""/>
    <tripinfo id="east_bottleneck_veh_000066" depart="240.00" departLane="-E5_2" departPos="5.10" departSpeed="12.26" departDelay="0.00" arrival="332.00" arrivalLane="E3_1" arrivalPos="136.40" arrivalSpeed="11.16" duration="92.00" routeLength="399.41" waitingTime="50.00" waitingCount="1" stopTime="0.00" timeLoss="58.45" rerouteNo="0" devices="tripinfo_east_bottleneck_veh_000066" vType="car" speedFactor="0.88" vaporized=""/>
    <tripinfo id="east_bottleneck_veh_000055" depart="180.00" departLane="-E4_1" departPos="5.10" departSpeed="13.89" departDelay="0.00" arrival="334.00" arrivalLane="-E18_2" arrivalPos="136.40" arrivalSpeed="13.87" duration="154.00" routeLength="506.61" waitingTime="102.00" waitingCount="2" stopTime="0.00" timeLoss="116.95" rerouteNo="0" devices="tripinfo_east_bottleneck_veh_000055" vType="car" speedFactor="1.00" vaporized=""/>
    <tripinfo id="east_bottleneck_veh_000074" depart="270.00" departLane="-E5_2" departPos="5.10" departSpeed="13.89" departDelay="0.00" arrival="334.00" arrivalLane="E3_1" arrivalPos="136.40" arrivalSpeed="13.42" duration="64.00" routeLength="399.41" waitingTime="25.00" waitingCount="1" stopTime="0.00" timeLoss="34.05" rerouteNo="0" devices="tripinfo_east_bottleneck_veh_000074" vType="car" speedFactor="1.06" vaporized=""/>
    <tripinfo id="east_bottleneck_veh_000046" depart="150.00" departLane="-E4_0" departPos="5.10" departSpeed="13.89" departDelay="0.00" arrival="335.00" arrivalLane="-E14_0" arrivalPos="136.40" arrivalSpeed="12.78" duration="185.00" routeLength="470.27" waitingTime="130.00" waitingCount="3" stopTime="0.00" timeLoss="149.16" rerouteNo="0" devices="tripinfo_east_bottleneck_veh_000046" vType="car" speedFactor="1.09" vaporized=""/>
    <tripinfo id="east_bottleneck_veh_000082" depart="300.00" departLane="-E5_2" departPos="5.10" departSpeed="13.86" departDelay="0.00" arrival="335.00" arrivalLane="E3_1" arrivalPos="136.40" arrivalSpeed="13.86" duration="35.00" routeLength="399.41" waitingTime="0.00" waitingCount="0" stopTime="0.00" timeLoss="5.49" rerouteNo="0" devices="tripinfo_east_bottleneck_veh_000082" vType="car" speedFactor="1.00" vaporized=""/>
    <tripinfo id="east_bottleneck_veh_000054" depart="180.00" departLane="-E4_0" departPos="5.10" departSpeed="13.89" departDelay="0.00" arrival="338.00" arrivalLane="-E14_0" arrivalPos="136.40" arrivalSpeed="13.35" duration="158.00" routeLength="470.27" waitingTime="102.00" waitingCount="2" stopTime="0.00" timeLoss="121.77" rerouteNo="0" devices="tripinfo_east_bottleneck_veh_000054" vType="car" speedFactor="1.10" vaporized=""/>
    <tripinfo id="east_bottleneck_veh_000064" depart="211.00" departLane="-E4_0" departPos="5.10" departSpeed="11.02" departDelay="1.00" arrival="339.00" arrivalLane="E2_1" arrivalPos="136.40" arrivalSpeed="12.44" duration="128.00" routeLength="383.93" waitingTime="83.00" waitingCount="2" stopTime="0.00" timeLoss="99.16" rerouteNo="0" devices="tripinfo_east_bottleneck_veh_000064" vType="car" speedFactor="0.99" vaporized=""/>
    <tripinfo id="east_bottleneck_veh_000072" depart="241.00" departLane="-E4_0" departPos="5.10" departSpeed="10.29" departDelay="1.00" arrival="341.00" arrivalLane="E2_1" arrivalPos="136.40" arrivalSpeed="13.15" duration="100.00" routeLength="383.93" waitingTime="54.00" waitingCount="2" stopTime="0.00" timeLoss="70.73" rerouteNo="0" devices="tripinfo_east_bottleneck_veh_000072" vType="car" speedFactor="0.97" vaporized=""/>
    <tripinfo id="east_bottleneck_veh_000057" depart="210.00" departLane="-E5_1" departPos="5.10" departSpeed="12.49" departDelay="0.00" arrival="342.00" arrivalLane="-E14_0" arrivalPos="136.40" arrivalSpeed="12.47" duration="132.00" routeLength="383.93" waitingTime="85.00" waitingCount="2" stopTime="0.00" timeLoss="99.44" rerouteNo="0" devices="tripinfo_east_bottleneck_veh_000057" vType="car" speedFactor="0.90" vaporized=""/>