<?xml version="1.0" encoding="UTF-8"?>

<!-- generated on 2026-07-17 17:11:27 by Eclipse SUMO sumo Version 1.19.0
<configuration xmlns:xsi="http://www.w3.org/2001/XMLSchema-instance" xsi:noNamespaceSchemaLocation="http://sumo.dlr.de/xsd/sumoConfiguration.xsd">

    <input>
        <net-file value="test_random_offsets_seed20260708.net.xml"/>
        <route-files value="light_all_seed1_no_change.rou.xml"/>
    </input>

    <output>
        <tripinfo-output value="tripinfo_light_all_seed1_no_change.xml"/>
    </output>

    <time>
        <begin value="0"/>
    </time>

    <report>
        <duration-log.statistics value="true"/>
        <no-step-log value="true"/>
    </report>

</configuration>
-->

<tripinfos xmlns:xsi="http://www.w3.org/2001/XMLSchema-instance" xsi:noNamespaceSchemaLocation="http://sumo.dlr.de/xsd/tripinfo_file.xsd">
    <tripinfo id="light_all_seed1_veh_000022" depart="15.00" departLane="-E4_2" departPos="5.10" departSpeed="13.89" departDelay="0.57" arrival="43.00" arrivalLane="E3_2" arrivalPos="136.40" arrivalSpeed="12.95" duration="28.00" routeLength="292.21" waitingTime="1.00" waitingCount="1" stopTime="0.00" timeLoss="6.19" rerouteNo="0" devices="tripinfo_light_all_seed1_veh_000022" vType="car" speedFactor="1.01" vaporized=""/>
    <tripinfo id="light_all_seed1_veh_000030" depart="15.00" departLane="-E19_2" departPos="5.10" departSpeed="12.94" departDelay="0.57" arrival="58.00" arrivalLane="-E17_1" arrivalPos="136.40" arrivalSpeed="12.27" duration="43.00" routeLength="399.41" waitingTime="4.00" waitingCount="1" stopTime="0.00" timeLoss="11.18" rerouteNo="0" devices="tripinfo_light_all_seed1_veh_000030" vType="car" speedFactor="0.93" vaporized=""/>
    <tripinfo id="light_all_seed1_veh_000019" depart="15.00" departLane="-E5_2" departPos="5.10" departSpeed="13.00" departDelay="0.57" arrival="60.00" arrivalLane="E3_1" arrivalPos="136.40" arrivalSpeed="12.86" duration="45.00" routeLength="399.41" waitingTime="6.00" waitingCount="1" stopTime="0.00" timeLoss="13.77" rerouteNo="0" devices="tripinfo_light_all_seed1_veh_000019" vType="car" speedFactor="0.94" vaporized=""/>
    <tripinfo id="light_all_seed1_veh_000018" depart="15.00" departLane="-E5_1" departPos="5.10" departSpeed="13.08" departDelay="0.57" arrival="63.00" arrivalLane="-E14_0" arrivalPos="136.40" arrivalSpeed="13.03" duration="48.00" routeLength="383.93" waitingTime="9.00" waitingCount="1" stopTime="0.00" timeLoss="17.95" rerouteNo="0" devices="tripinfo_light_all_seed1_veh_000018" vType="car" speedFactor="0.94" vaporized=""/>
    <tripinfo id="light_all_seed1_veh_000026" depart="15.00" departLane="-E3_0" departPos="5.10" departSpeed="12.12" departDelay="0.57" arrival="63.00" arrivalLane="E4_0" arrivalPos="136.40" arrivalSpeed="11.71" duration="48.00" routeLength="276.73" waitingTime="17.00" waitingCount="1" stopTime="0.00" timeLoss="23.36" rerouteNo="0" devices="tripinfo_light_all_seed1_veh_000026" vType="car" speedFactor="0.87" vaporized=""/>
    <tripinfo id="light_all_seed1_veh_000010" depart="15.00" departLane="E14_0" departPos="5.10" departSpeed="11.90" departDelay="0.57" arrival="65.00" arrivalLane="-E9_1" arrivalPos="136.40" arrivalSpeed="11.74" duration="50.00" routeLength="383.93" waitingTime="9.00" waitingCount="1" stopTime="0.00" timeLoss="17.24" rerouteNo="0" devices="tripinfo_light_all_seed1_veh_000010" vType="car" speedFactor="0.86" vaporized=""/>
    <tripinfo id="light_all_seed1_veh_000027" depart="15.00" departLane="-E3_1" departPos="5.10" departSpeed="12.74" departDelay="0.57" arrival="71.00" arrivalLane="E2_1" arrivalPos="136.40" arrivalSpeed="12.08" duration="56.00" routeLength="402.10" waitingTime="19.00" waitingCount="1" stopTime="0.00" timeLoss="24.33" rerouteNo="0" devices="tripinfo_light_all_seed1_veh_000027" vType="car" speedFactor="0.92" vaporized=""/>
    <tripinfo id="light_all_seed1_veh_000014" depart="15.00" departLane="-E2_0" departPos="5.10" departSpeed="13.89" departDelay="0.57" arrival="76.00" arrivalLane="-E14_0" arrivalPos="136.40" arrivalSpeed="13.56" duration="61.00" routeLength="365.76" waitingTime="25.00" waitingCount="1" stopTime="0.00" timeLoss="33.31" rerouteNo="0" devices="tripinfo_light_all_seed1_veh_000014" vType="car" speedFactor="1.12" vaporized=""/>
    <tripinfo id="light_all_seed1_veh_000024" depart="15.00" departLane="-E4_1" departPos="5.10" departSpeed="12.36" departDelay="0.57" arrival="79.00" arrivalLane="-E18_2" arrivalPos="136.40" arrivalSpeed="11.15" duration="64.00" routeLength="506.61" waitingTime="14.00" waitingCount="1" stopTime="0.00" timeLoss="21.55" rerouteNo="0" devices="tripinfo_light_all_seed1_veh_000024" vType="car" speedFactor="0.89" vaporized=""/>
    <tripinfo id="light_all_seed1_veh_000005" depart="16.00" departLane="E9_0" departPos="5.10" departSpeed="11.05" departDelay="1.57" arrival="83.00" arrivalLane="-E18_1" arrivalPos="136.40" arrivalSpeed="13.16" duration="67.00" routeLength="383.93" waitingTime="23.00" waitingCount="2" stopTime="0.00" timeLoss="37.60" rerouteNo="0" devices="tripinfo_light_all_seed1_veh_000005" vType="car" speedFactor="1.03" vaporized=""/>
    <tripinfo id="light_all_seed1_veh_000015" depart="15.00" departLane="-E2_1" departPos="5.10" departSpeed="13.77" departDelay="0.57" arrival="89.00" arrivalLane="E4_2" arrivalPos="136.40" arrivalSpeed="12.58" duration="74.00" routeLength="399.41" waitingTime="31.00" waitingCount="2" stopTime="0.00" timeLoss="44.21" rerouteNo="0" devices="tripinfo_light_all_seed1_veh_000015" vType="car" speedFactor="0.99" vaporized=""/>
    <tripinfo id="light_all_seed1_veh_000004" depart="17.00" departLane="E9_1" departPos="5.10" departSpeed="7.01" departDelay="2.57" arrival="91.00" arrivalLane="-E14_2" arrivalPos="136.40" arrivalSpeed="13.01" duration="74.00" routeLength="399.41" waitingTime="28.00" waitingCount="2" stopTime="0.00" timeLoss="44.28" rerouteNo="0" devices="tripinfo_light_all_seed1_veh_000004" vType="car" speedFactor="1.08" vaporized=""/>
    <tripinfo id="light_all_seed1_veh_000020" depart="16.00" departLane="-E5_1" departPos="5.10" departSpeed="9.96" departDelay="1.57" arrival="99.00" arrivalLane="-E18_1" arrivalPos="136.40" arrivalSpeed="13.56" duration="83.00" routeLength="613.81" waitingTime="22.00" waitingCount="2" stopTime="0.00" timeLoss="38.15" rerouteNo="0" devices="tripinfo_light_all_seed1_veh_000020" vType="car" speedFactor="1.16" vaporized=""/>
    <tripinfo id="light_all_seed1_veh_000016" depart="16.00" departLane="-E2_0" departPos="5.10" departSpeed="10.34" departDelay="1.57" arrival="104.00" arrivalLane="-E17_0" arrivalPos="136.40" arrivalSpeed="12.65" duration="88.00" routeLength="577.47" waitingTime="25.00" waitingCount="1" stopTime="0.00" timeLoss="40.50" rerouteNo="0" devices="tripinfo_light_all_seed1_veh_000016" vType="car" speedFactor="0.93" vaporized=""/>
    <tripinfo id="light_all_seed1_veh_000039" depart="15.00" departLane="E17_1" departPos="5.10" departSpeed="13.89" departDelay="0.57" arrival="105.00" arrivalLane="E3_0" arrivalPos="136.40" arrivalSpeed="12.63" duration="90.00" routeLength="491.13" waitingTime="42.00" waitingCount="2" stopTime="0.00" timeLoss="53.91" rerouteNo="0" devices="tripinfo_light_all_seed1_veh_000039" vType="car" speedFactor="1.10" vaporized=""/>
    <tripinfo id="light_all_seed1_veh_000031" depart="15.00" departLane="-E19_0" departPos="5.10" departSpeed="13.89" departDelay="0.57" arrival="107.00" arrivalLane="E4_1" arrivalPos="136.40" arrivalSpeed="13.58" duration="92.00" routeLength="383.93" waitingTime="55.00" waitingCount="1" stopTime="0.00" timeLoss="63.10" rerouteNo="0" devices="tripinfo_light_all_seed1_veh_000031" vType="car" speedFactor="1.18" vaporized=""/>
    <tripinfo id="light_all_seed1_veh_000033" depart="16.00" departLane="-E19_2" departPos="5.10" departSpeed="9.15" departDelay="1.57" arrival="109.00" arrivalLane="-E10_1" arrivalPos="136.40" arrivalSpeed="12.66" duration="93.00" routeLength="488.44" waitingTime="41.00" waitingCount="2" stopTime="0.00" timeLoss="56.06" rerouteNo="0" devices="tripinfo_light_all_seed1_veh_000033" vType="car" speedFactor="1.01" vaporized=""/>
    <tripinfo id="light_all_seed1_veh_000038" depart="15.00" departLane="E17_2" departPos="5.10" departSpeed="13.89" departDelay="0.57" arrival="111.00" arrivalLane="-E10_1" arrivalPos="136.40" arrivalSpeed="12.66" duration="96.00" routeLength="399.41" waitingTime="54.00" waitingCount="2" stopTime="0.00" timeLoss="66.40" rerouteNo="0" devices="tripinfo_light_all_seed1_veh_000038" vType="car" speedFactor="1.18" vaporized=""/>
    <tripinfo id="light_all_seed1_veh_000012" depart="15.00" departLane="E14_1" departPos="5.10" departSpeed="13.89" departDelay="0.57" arrival="112.00" arrivalLane="E19_1" arrivalPos="136.40" arrivalSpeed="12.99" duration="97.00" routeLength="402.10" waitingTime="62.00" waitingCount="1" stopTime="0.00" timeLoss="67.92" rerouteNo="0" devices="tripinfo_light_all_seed1_veh_000012" vType="car" speedFactor="1.03" vaporized=""/>
    <tripinfo id="light_all_seed1_veh_000011" depart="15.00" departLane="E14_2" departPos="5.10" departSpeed="13.89" departDelay="0.57" arrival="114.00" arrivalLane="E5_1" arrivalPos="136.40" arrivalSpeed="13.63" duration="99.00" routeLength="399.41" waitingTime="57.00" waitingCount="2" stopTime="0.00" timeLoss="69.22" rerouteNo="0" devices="tripinfo_light_all_seed1_veh_000011" vType="car" speedFactor="1.09" vaporized=""/>
    <tripinfo id="light_all_seed1_veh_000021" depart="17.00" departLane="-E5_1" departPos="5.10" departSpeed="5.81" departDelay="2.57" arrival="114.00" arrivalLane="E19_1" arrivalPos="136.40" arrivalSpeed="13.57" duration="97.00" routeLength="506.61" waitingTime="45.00" waitingCount="2" stopTime="0.00" timeLoss="59.82" rerouteNo="0" devices="tripinfo_light_all_seed1_veh_000021" vType="car" speedFactor="1.02" vaporized=""/>
    <tripinfo id="light_all_seed1_veh_000007" depart="15.00" departLane="E10_2" departPos="5.10" departSpeed="13.89" departDelay="0.57" arrival="116.00" arrivalLane="E5_1" arrivalPos="136.40" arrivalSpeed="13.25" duration="101.00" routeLength="506.61" waitingTime="47.00" waitingCount="3" stopTime="0.00" timeLoss="63.28" rerouteNo="0" devices="tripinfo_light_all_seed1_veh_000007" vType="car" speedFactor="1.05" vaporized=""/>
    <tripinfo id="light_all_seed1_veh_000017" depart="17.00" departLane="-E2_0" departPos="5.10" departSpeed="6.16" departDelay="2.57" arrival="117.00" arrivalLane="E19_1" arrivalPos="136.40" arrivalSpeed="11.86" duration="100.00" routeLength="488.44" waitingTime="35.00" waitingCount="3" stopTime="0.00" timeLoss="58.16" rerouteNo="0" devices="tripinfo_light_all_seed1_veh_000017" vType="car" speedFactor="0.88" vaporized=""/>
    <tripinfo id="light_all_seed1_veh_000002" depart="16.00" departLane="E9_1" departPos="5.10" departSpeed="10.23" departDelay="1.57" arrival="118.00" arrivalLane="E5_1" arrivalPos="136.40" arrivalSpeed="12.67" duration="102.00" routeLength="509.30" waitingTime="49.00" waitingCount="2" stopTime="0.00" timeLoss="62.59" rerouteNo="0" devices="tripinfo_light_all_seed1_veh_000002" vType="car" speedFactor="0.94" vaporized=""/>
    <tripinfo id="light_all_seed1_veh_000032" depart="15.00" departLane="-E19_1" departPos="5.10" departSpeed="13.89" departDelay="0.57" arrival="120.00" arrivalLane="E5_1" arrivalPos="136.40" arrivalSpeed="12.70" duration="105.00" routeLength="491.13" waitingTime="58.00" waitingCount="1" stopTime="0.00" timeLoss="68.65" rerouteNo="0" devices="tripinfo_light_all_seed1_veh_000032" vType="car" speedFactor="1.15" vaporized=""/>
    <tripinfo id="light_all_seed1_veh_000034" depart="15.00" departLane="E18_1" departPos="5.10" departSpeed="13.89" departDelay="0.57" arrival="136.00" arrivalLane="-E9_2" arrivalPos="136.40" arrivalSpeed="13.70" duration="121.00" routeLength="399.41" waitingTime="79.00" waitingCount="2" stopTime="0.00" timeLoss="91.22" rerouteNo="0" devices="tripinfo_light_all_seed1_veh_000034" vType="car" speedFactor="1.17" vaporized=""/>
    <tripinfo id="light_all_seed1_veh_000023" depart="15.00" departLane="-E4_0" departPos="5.10" departSpeed="13.54" departDelay="0.57" arrival="153.00" arrivalLane="-E14_0" arrivalPos="136.40" arrivalSpeed="12.47" duration="138.00" routeLength="470.27" waitingTime="86.00" waitingCount="2" stopTime="0.00" timeLoss="100.63" rerouteNo="0" devices="tripinfo_light_all_seed1_veh_000023" vType="car" speedFactor="0.97" vaporized=""/>
    <tripinfo id="light_all_seed1_veh_000029" depart="16.00" departLane="-E3_1" departPos="5.10" departSpeed="9.67" departDelay="1.57" arrival="155.00" arrivalLane="-E14_0" arrivalPos="136.40" arrivalSpeed="13.16" duration="139.00" routeLength="488.44" waitingTime="79.00" waitingCount="3" stopTime="0.00" timeLoss="101.95" rerouteNo="0" devices="tripinfo_light_all_seed1_veh_000029" vType="car" speedFactor="1.13" vaporized=""/>
    <tripinfo id="light_all_seed1_veh_000006" depart="15.00" departLane="E10_1" departPos="5.10" departSpeed="11.54" departDelay="0.57" arrival="159.00" arrivalLane="E19_0" arrivalPos="136.40" arrivalSpeed="11.21" duration="144.00" routeLength="488.44" waitingTime="87.00" waitingCount="2" stopTime="0.00" timeLoss="99.26" rerouteNo="0" devices="tripinfo_light_all_seed1_veh_000006" vType="car" speedFactor="0.83" vaporized=""/>
    <tripinfo id="light_all_seed1_veh_000025" depart="16.00" departLane="-E4_0" departPos="5.10" departSpeed="10.46" departDelay="1.57" arrival="161.00" arrivalLane="E2_1" arrivalPos="136.40" arrivalSpeed="10.27" duration="145.00" routeLength="383.93" waitingTime="97.00" waitingCount="2" stopTime="0.00" timeLoss="110.44" rerouteNo="0" devices="tripinfo_light_all_seed1_veh_000025" vType="car" speedFactor="0.83" vaporized=""/>
    <tripinfo id="light_all_seed1_veh_000008" depart="16.00" departLane="E10_1" departPos="5.10" departSpeed="7.20" departDelay="1.57" arrival="173.00" arrivalLane="-E17_0" arrivalPos="136.40" arrivalSpeed="11.30" duration="157.00" routeLength="383.93" waitingTime="113.00" waitingCount="2" stopTime="0.00" timeLoss="124.57" rerouteNo="0" devices="tripinfo_light_all_seed1_veh_000008" vType="car" speedFactor="0.89" vaporized=""/>
    <tripinfo id="light_all_seed1_veh_000013" depart="16.00" departLane="E14_2" departPos="5.10" departSpeed="10.30" departDelay="1.57" arrival="179.00" arrivalLane="E4_2" arrivalPos="136.40" arrivalSpeed="13.39" duration="163.00" routeLength="485.75" waitingTime="107.00" waitingCount="3" stopTime="0.00" timeLoss="125.96" rerouteNo="0" devices="tripinfo_light_all_seed1_veh_000013" vType="car" speedFactor="1.05" vaporized=""/>
    <tripinfo id="light_all_seed1_veh_000040" depart="16.00" departLane="E17_2" departPos="5.10" departSpeed="10.77" departDelay="1.57" arrival="182.00" arrivalLane="-E14_2" arrivalPos="136.40" arrivalSpeed="12.43" duration="166.00" routeLength="485.75" waitingTime="109.00" waitingCount="3" stopTime="0.00" timeLoss="125.52" rerouteNo="0" devices="tripinfo_light_all_seed1_veh_000040" vType="car" speedFactor="0.90" vaporized=""/>
    <tripinfo id="light_all_seed1_veh_000036" depart="16.00" departLane="E18_1" departPos="5.10" departSpeed="11.46" departDelay="1.57" arrival="184.00" arrivalLane="-E14_2" arrivalPos="136.40" arrivalSpeed="12.71" duration="168.00" routeLength="488.44" waitingTime="108.00" waitingCount="3" stopTime="0.00" timeLoss="131.44" rerouteNo="0" devices="tripinfo_light_all_seed1_veh_000036" vType="car" speedFactor="1.02" vaporized=""/>
    <tripinfo id="light_all_seed1_veh_000035" depart="15.00" departLane="E18_0" departPos="5.10" departSpeed="13.82" departDelay="0.57" arrival="197.00" arrivalLane="E4_1" arrivalPos="136.40" arrivalSpeed="13.46" duration="182.00" routeLength="491.13" waitingTime="126.00" waitingCount="3" stopTime="0.00" timeLoss="145.10" rerouteNo="0" devices="tripinfo_light_all_seed1_veh_000035" vType="car" speedFactor="0.99" vaporized=""/>
    <tripinfo id="light_all_seed1_veh_000003" depart="15.00" departLane="E9_0" departPos="5.10" departSpeed="13.89" departDelay="0.57" arrival="199.00" arrivalLane="E4_1" arrivalPos="136.40" arrivalSpeed="12.84" duration="184.00" routeLength="595.64" waitingTime="114.00" waitingCount="4" stopTime="0.00" timeLoss="139.36" rerouteNo="0" devices="tripinfo_light_all_seed1_veh_000003" vType="car" speedFactor="1.01" vaporized=""/>
    <tripinfo id="light_all_seed1_veh_000009" depart="18.00" departLane="E10_1" departPos="5.10" departSpeed="7.39" departDelay="3.57" arrival="201.00" arrivalLane="E4_1" arrivalPos="136.40" arrivalSpeed="12.25" duration="183.00" routeLength="613.81" waitingTime="109.00" waitingCount="3" stopTime="0.00" timeLoss="134.72" rerouteNo="0" devices="tripinfo_light_all_seed1_veh_000009" vType="car" speedFactor="0.94" vaporized=""/>
    <tripinfo id="light_all_seed1_veh_000041" depart="17.00" departLane="E17_2" departPos="5.10" departSpeed="6.00" departDelay="2.57" arrival="204.00" arrivalLane="E5_1" arrivalPos="136.40" arrivalSpeed="12.88" duration="187.00" routeLength="595.64" waitingTime="115.00" waitingCount="4" stopTime="0.00" timeLoss="142.82" rerouteNo="0" devices="tripinfo_light_all_seed1_veh_000041" vType="car" speedFactor="1.03" vaporized=""/>
    <tripinfo id="light_all_seed1_veh_000037" depart="17.00" departLane="E18_1" departPos="5.10" departSpeed="8.03" departDelay="2.57" arrival="206.00" arrivalLane="E5_1" arrivalPos="136.40" arrivalSpeed="12.89" duration="189.00" routeLength="598.33" waitingTime="110.00" waitingCount="4" stopTime="0.00" timeLoss="143.83" rerouteNo="0" devices="tripinfo_light_all_seed1_veh_000037" vType="car" speedFactor="0.97" vaporized=""/>
    <tripinfo id="light_all_seed1_veh_000028" depart="15.00" departLane="-E3_2" departPos="5.10" departSpeed="13.18" departDelay="0.57" arrival="218.00" arrivalLane="-E17_1" arrivalPos="136.40" arrivalSpeed="11.95" duration="203.00" routeLength="506.61" waitingTime="145.00" waitingCount="3" stopTime="0.00" timeLoss="163.48" rerouteNo="0" devices="tripinfo_light_all_seed1_veh_000028" vType="car" speedFactor="0.95" vaporized=""/>
    <tripinfo id="light_all_seed1_veh_000063" depart="203.00" departLane="-E4_2" departPos="5.10" departSpeed="13.89" departDelay="0.56" arrival="227.00" arrivalLane="E3_2" arrivalPos="136.40" arrivalSpeed="13.27" duration="24.00" routeLength="292.21" waitingTime="0.00" waitingCount="0" stopTime="0.00" timeLoss="1.69" rerouteNo="0" devices="tripinfo_light_all_seed1_veh_000063" vType="car" speedFactor="1.02" vaporized=""/>
    <tripinfo id="light_all_seed1_veh_000071" depart="203.00" departLane="-E19_2" departPos="5.10" departSpeed="13.89" departDelay="0.56" arrival="235.00" arrivalLane="-E17_1" arrivalPos="136.40" arrivalSpeed="12.78" duration="32.00" routeLength="399.41" waitingTime="0.00" waitingCount="0" stopTime="0.00" timeLoss="2.13" rerouteNo="0" devices="tripinfo_light_all_seed1_veh_000071" vType="car" speedFactor="1.02" vaporized=""/>
    <tripinfo id="light_all_seed1_veh_000060" depart="203.00" departLane="-E5_2" departPos="5.10" departSpeed="13.47" departDelay="0.56" arrival="240.00" arrivalLane="E3_1" arrivalPos="136.40" arrivalSpeed="13.08" duration="37.00" routeLength="399.41" waitingTime="0.00" waitingCount="0" stopTime="0.00" timeLoss="6.37" rerouteNo="0" devices="tripinfo_light_all_seed1_veh_000060" vType="car" speedFactor="0.97" vaporized=""/>
    <tripinfo id="light_all_seed1_veh_000067" depart="203.00" departLane="-E3_0" departPos="5.10" departSpeed="12.60" departDelay="0.56" arrival="241.00" arrivalLane="E4_0" arrivalPos="136.40" arrivalSpeed="11.65" duration="38.00" routeLength="276.73" waitingTime="8.00" waitingCount="1" stopTime="0.00" timeLoss="15.45" rerouteNo="0" devices="tripinfo_light_all_seed1_veh_000067" vType="car" speedFactor="0.91" vaporized=""/>
    <tripinfo id="light_all_seed1_veh_000001" depart="15.00" departLane="E9_1" departPos="5.10" departSpeed="13.89" departDelay="0.57" arrival="247.00" arrivalLane="E5_0" arrivalPos="136.40" arrivalSpeed="13.25" duration="232.00" routeLength="681.98" waitingTime="157.00" waitingCount="4" stopTime="0.00" timeLoss="180.96" rerouteNo="0" devices="tripinfo_light_all_seed1_veh_000001" vType="car" speedFactor="1.06" vaporized=""/>
    <tripinfo id="light_all_seed1_veh_000068" depart="203.00" departLane="-E3_1" departPos="5.10" departSpeed="12.70" departDelay="0.56" arrival="251.00" arrivalLane="E2_1" arrivalPos="136.40" arrivalSpeed="12.56" duration="48.00" routeLength="402.10" waitingTime="10.00" waitingCount="1" stopTime="0.00" timeLoss="15.99" rerouteNo="0" devices="tripinfo_light_all_seed1_veh_000068" vType="car" speedFactor="0.91" vaporized=""/>
    <tripinfo id="light_all_seed1_veh_000055" depart="203.00" departLane="-E2_0" departPos="5.10" departSpeed="13.89" departDelay="0.56" arrival="257.00" arrivalLane="-E14_0" arrivalPos="136.40" arrivalSpeed="12.79" duration="54.00" routeLength="365.76" waitingTime="16.00" waitingCount="1" stopTime="0.00" timeLoss="25.87" rerouteNo="0" devices="tripinfo_light_all_seed1_veh_000055" vType="car" speedFactor="1.00" vaporized=""/>
    <tripinfo id="light_all_seed1_veh_000046" depart="204.00" departLane="E9_0" departPos="5.10" departSpeed="10.47" departDelay="1.56" arrival="263.00" arrivalLane="-E18_1" arrivalPos="136.40" arrivalSpeed="13.39" duration="59.00" routeLength="383.93" waitingTime="16.00" waitingCount="2" stopTime="0.00" timeLoss="30.67" rerouteNo="0" devices="tripinfo_light_all_seed1_veh_000046" vType="car" speedFactor="1.09" vaporized=""/>
    <tripinfo id="light_all_seed1_veh_000056" depart="203.00" departLane="-E2_1" departPos="5.10" departSpeed="13.83" departDelay="0.56" arrival="268.00" arrivalLane="E4_2" arrivalPos="136.40" arrivalSpeed="12.87" duration="65.00" routeLength="399.41" waitingTime="25.00" waitingCount="2" stopTime="0.00" timeLoss="35.47" rerouteNo="0" devices="tripinfo_light_all_seed1_veh_000056" vType="car" speedFactor="1.00" vaporized=""/>
    <tripinfo id="light_all_seed1_veh_000045" depart="205.00" departLane="E9_1" departPos="5.10" departSpeed="5.66" departDelay="2.56" arrival="271.00" arrivalLane="-E14_2" arrivalPos="136.40" arrivalSpeed="12.66" duration="66.00" routeLength="399.41" waitingTime="19.00" waitingCount="2" stopTime="0.00" timeLoss="36.03" rerouteNo="0" devices="tripinfo_light_all_seed1_veh_000045" vType="car" speedFactor="1.04" vaporized=""/>
    <tripinfo id="light_all_seed1_veh_000057" depart="204.00" departLane="-E2_0" departPos="5.10" departSpeed="11.28" departDelay="1.56" arrival="281.00" arrivalLane="-E17_0" arrivalPos="136.40" arrivalSpeed="12.46" duration="77.00" routeLength="577.47" waitingTime="15.00" waitingCount="1" stopTime="0.00" timeLoss="27.92" rerouteNo="0" devices="tripinfo_light_all_seed1_veh_000057" vType="car" speedFactor="0.90" vaporized=""/>
    <tripinfo id="light_all_seed1_veh_000080" depart="203.00" departLane="E17_1" departPos="5.10" departSpeed="13.89" departDelay="0.56" arrival="285.00" arrivalLane="E3_0" arrivalPos="136.40" arrivalSpeed="13.73" duration="82.00" routeLength="491.13" waitingTime="33.00" waitingCount="2" stopTime="0.00" timeLoss="46.04" rerouteNo="0" devices="tripinfo_light_all_seed1_veh_000080" vType="car" speedFactor="1.09" vaporized=""/>
    <tripinfo id="light_all_seed1_veh_000074" depart="204.00" departLane="-E19_2" departPos="5.10" departSpeed="10.35" departDelay="1.56" arrival="289.00" arrivalLane="-E10_1" arrivalPos="136.40" arrivalSpeed="13.82" duration="85.00" routeLength="488.44" waitingTime="38.00" waitingCount="1" stopTime="0.00" timeLoss="48.72" rerouteNo="0" devices="tripinfo_light_all_seed1_veh_000074" vType="car" speedFactor="1.06" vaporized=""/>
    <tripinfo id="light_all_seed1_veh_000079" depart="203.00" departLane="E17_2" departPos="5.10" departSpeed="13.89" departDelay="0.56" arrival="291.00" arrivalLane="-E10_1" arrivalPos="136.40" arrivalSpeed="12.80" duration="88.00" routeLength="399.41" waitingTime="45.00" waitingCount="2" stopTime="0.00" timeLoss="58.49" rerouteNo="0" devices="tripinfo_light_all_seed1_veh_000079" vType="car" speedFactor="1.01" vaporized=""/>
    <tripinfo id="light_all_seed1_veh_000058" depart="205.00" departLane="-E2_0" departPos="5.10" departSpeed="8.50" departDelay="2.56" arrival="292.00" arrivalLane="E19_1" arrivalPos="136.40" arrivalSpeed="13.82" duration="87.00" routeLength="488.44" waitingTime="28.00" waitingCount="3" stopTime="0.00" timeLoss="50.49" rerouteNo="0" devices="tripinfo_light_all_seed1_veh_000058" vType="car" speedFactor="1.14" vaporized=""/>
    <tripinfo id="light_all_seed1_veh_000052" depart="203.00" departLane="E14_2" departPos="5.10" departSpeed="13.89" departDelay="0.56" arrival="294.00" arrivalLane="E5_1" arrivalPos="136.40" arrivalSpeed="12.92" duration="91.00" routeLength="399.41" waitingTime="52.00" waitingCount="1" stopTime="0.00" timeLoss="61.69" rerouteNo="0" devices="tripinfo_light_all_seed1_veh_000052" vType="car" speedFactor="1.17" vaporized=""/>
    <tripinfo id="light_all_seed1_veh_000048" depart="203.00" departLane="E10_2" departPos="5.10" departSpeed="12.51" departDelay="0.56" arrival="297.00" arrivalLane="E5_1" arrivalPos="136.40" arrivalSpeed="11.99" duration="94.00" routeLength="506.61" waitingTime="40.00" waitingCount="2" stopTime="0.00" timeLoss="52.61" rerouteNo="0" devices="tripinfo_light_all_seed1_veh_000048" vType="car" speedFactor="0.90" vaporized=""/>
    <tripinfo id="light_all_seed1_veh_000053" depart="203.00" departLane="E14_1" departPos="5.10" departSpeed="13.89" departDelay="0.56" arrival="297.00" arrivalLane="E19_1" arrivalPos="136.40" arrivalSpeed="13.53" duration="94.00" routeLength="402.10" waitingTime="58.00" waitingCount="1" stopTime="0.00" timeLoss="64.53" rerouteNo="0" devices="tripinfo_light_all_seed1_veh_000053" vType="car" speedFactor="1.02" vaporized=""/>
    <tripinfo id="light_all_seed1_veh_000043" depart="204.00" departLane="E9_1" departPos="5.10" departSpeed="10.21" departDelay="1.56" arrival="299.00" arrivalLane="E5_1" arrivalPos="136.40" arrivalSpeed="13.19" duration="95.00" routeLength="509.30" waitingTime="41.00" waitingCount="2" stopTime="0.00" timeLoss="57.61" rerouteNo="0" devices="tripinfo_light_all_seed1_veh_000043" vType="car" speedFactor="1.09" vaporized=""/>
    <tripinfo id="light_all_seed1_veh_000072" depart="203.00" departLane="-E19_0" departPos="5.10" departSpeed="13.51" departDelay="0.56" arrival="300.00" arrivalLane="E4_1" arrivalPos="136.40" arrivalSpeed="12.29" duration="97.00" routeLength="383.93" waitingTime="61.00" waitingCount="1" stopTime="0.00" timeLoss="67.22" rerouteNo="0" devices="tripinfo_light_all_seed1_veh_000072" vType="car" speedFactor="0.97" vaporized=""/>
    <tripinfo id="light_all_seed1_veh_000073" depart="203.00" departLane="-E19_1" departPos="5.10" departSpeed="13.06" departDelay="0.56" arrival="311.00" arrivalLane="E5_1" arrivalPos="136.40" arrivalSpeed="12.52" duration="108.00" routeLength="491.13" waitingTime="60.00" waitingCount="1" stopTime="0.00" timeLoss="69.41" rerouteNo="0" devices="tripinfo_light_all_seed1_veh_000073" vType="car" speedFactor="0.94" vaporized=""/>
    <tripinfo id="light_all_seed1_veh_000075" depart="203.00" departLane="E18_1" departPos="5.10" departSpeed="13.27" departDelay="0.56" arrival="316.00" arrivalLane="-E9_2" arrivalPos="136.40" arrivalSpeed="12.26" duration="113.00" routeLength="399.41" waitingTime="71.00" waitingCount="2" stopTime="0.00" timeLoss="82.26" rerouteNo="0" devices="tripinfo_light_all_seed1_veh_000075" vType="car" speedFactor="0.96" vaporized=""/>
    <tripinfo id="light_all_seed1_veh_000070" depart="204.00" departLane="-E3_1" departPos="5.10" departSpeed="9.91" departDelay="1.56" arrival="333.00" arrivalLane="-E14_0" arrivalPos="136.40" arrivalSpeed="13.59" duration="129.00" routeLength="488.44" waitingTime="71.00" waitingCount="3" stopTime="0.00" timeLoss="92.16" rerouteNo="0" devices="tripinfo_light_all_seed1_veh_000070" vType="car" speedFactor="1.02" vaporized=""/>
    <tripinfo id="light_all_seed1_veh_000059" depart="203.00" departLane="-E5_1" departPos="5.10" departSpeed="13.89" departDelay="0.56" arrival="335.00" arrivalLane="-E14_0" arrivalPos="136.40" arrivalSpeed="13.85" duration="132.00" routeLength="383.93" waitingTime="90.00" waitingCount="2" stopTime="0.00" timeLoss="103.14" rerouteNo="0" devices="tripinfo_light_all_seed1_veh_000059" vType="car" speedFactor="1.02" vaporized=""/>
    <tripinfo id="light_all_seed1_veh_000047" depart="203.00" departLane="E10_1" departPos="5.10" departSpeed="13.85" departDelay="0.56" arrival="336.00" arrivalLane="E19_0" arrivalPos="136.40" arrivalSpeed="13.27" duration="133.00" routeLength="488.44" waitingTime="84.00" waitingCount="2" stopTime="0.00" timeLoss="96.40" rerouteNo="0" devices="tripinfo_light_all_seed1_veh_000047" vType="car" speedFactor="1.00" vaporized=""/>
    <tripinfo id="light_all_seed1_veh_000051" depart="203.00" departLane="E14_0" departPos="5.10" departSpeed="11.87" departDelay="0.56" arrival="336.00" arrivalLane="-E9_1" arrivalPos="136.40" arrivalSpeed="11.53" duration="133.00" routeLength="383.93" waitingTime="89.00" waitingCount="2" stopTime="0.00" timeLoss="99.41" rerouteNo="0" devices="tripinfo_light_all_seed1_veh_000051" vType="car" speedFactor="0.85" vaporized=""/>
    <tripinfo id="light_all_seed1_veh_000066" depart="204.00" departLane="-E4_0" departPos="5.10" departSpeed="10.09" departDelay="1.56" arrival="340.00" arrivalLane="E2_1" arrivalPos="136.40" arrivalSpeed="11.74" duration="136.00" routeLength="383.93" waitingTime="90.00" waitingCount="2" stopTime="0.00" timeLoss="103.33" rerouteNo="0" devices="tripinfo_light_all_seed1_veh_000066" vType="car" speedFactor="0.88" vaporized=""/>
    <tripinfo id="light_all_seed1_veh_000065" depart="203.00" departLane="-E4_1" departPos="5.10" departSpeed="13.02" departDelay="0.56" arrival="349.00" arrivalLane="-E18_2" arrivalPos="136.40" arrivalSpeed="12.51" duration="146.00" routeLength="506.61" waitingTime="92.00" waitingCount="2" stopTime="0.00" timeLoss="106.16" rerouteNo="0" devices="tripinfo_light_all_seed1_veh_000065" vType="car" speedFactor="0.94" vaporized=""/>