<?xml version="1.0" encoding="UTF-8"?>

<!-- generated on 2026-07-17 17:25:54 by Eclipse SUMO sumo Version 1.19.0
<configuration xmlns:xsi="http://www.w3.org/2001/XMLSchema-instance" xsi:noNamespaceSchemaLocation="http://sumo.dlr.de/xsd/sumoConfiguration.xsd">

    <input>
        <net-file value="test_random_offsets_seed20260708.net.xml"/>
        <route-files value="southwest_bottleneck_no_change.rou.xml"/>
    </input>

    <output>
        <tripinfo-output value="tripinfo_southwest_bottleneck_no_change.xml"/>
    </output>

    <time>
        <begin value="0"/>
    </time>

    <report>
        <duration-log.statistics value="true"/>
        <no-step-log value="true"/>
    </report>

</configuration>
-->

<tripinfos xmlns:xsi="http://www.w3.org/2001/XMLSchema-instance" xsi:noNamespaceSchemaLocation="http://sumo.dlr.de/xsd/tripinfo_file.xsd">
    <tripinfo id="southwest_bottleneck_veh_000006" depart="0.00" departLane="E17_1" departPos="5.10" departSpeed="11.54" departDelay="0.00" arrival="107.00" arrivalLane="E3_0" arrivalPos="136.40" arrivalSpeed="11.21" duration="107.00" routeLength="491.13" waitingTime="45.00" waitingCount="3" stopTime="0.00" timeLoss="63.73" rerouteNo="0" devices="tripinfo_southwest_bottleneck_veh_000006" vType="car" speedFactor="0.83" vaporized=""/>
    <tripinfo id="southwest_bottleneck_veh_000005" depart="0.00" departLane="E17_2" departPos="5.10" departSpeed="13.89" departDelay="0.00" arrival="109.00" arrivalLane="-E10_1" arrivalPos="136.40" arrivalSpeed="13.86" duration="109.00" routeLength="399.41" waitingTime="69.00" waitingCount="2" stopTime="0.00" timeLoss="79.07" rerouteNo="0" devices="tripinfo_southwest_bottleneck_veh_000005" vType="car" speedFactor="1.03" vaporized=""/>
    <tripinfo id="southwest_bottleneck_veh_000014" depart="30.00" departLane="E17_1" departPos="5.10" departSpeed="13.89" departDelay="0.00" arrival="109.00" arrivalLane="E3_0" arrivalPos="136.40" arrivalSpeed="12.85" duration="79.00" routeLength="491.13" waitingTime="24.00" waitingCount="2" stopTime="0.00" timeLoss="42.36" rerouteNo="0" devices="tripinfo_southwest_bottleneck_veh_000014" vType="car" speedFactor="1.12" vaporized=""/>
    <tripinfo id="southwest_bottleneck_veh_000013" depart="30.00" departLane="E17_2" departPos="5.10" departSpeed="13.89" departDelay="0.00" arrival="111.00" arrivalLane="-E10_1" arrivalPos="136.40" arrivalSpeed="12.77" duration="81.00" routeLength="399.41" waitingTime="38.00" waitingCount="2" stopTime="0.00" timeLoss="50.74" rerouteNo="0" devices="tripinfo_southwest_bottleneck_veh_000013" vType="car" speedFactor="1.05" vaporized=""/>
    <tripinfo id="southwest_bottleneck_veh_000001" depart="0.00" departLane="E18_1" departPos="5.10" departSpeed="13.89" departDelay="0.00" arrival="136.00" arrivalLane="-E9_2" arrivalPos="136.40" arrivalSpeed="13.36" duration="136.00" routeLength="399.41" waitingTime="94.00" waitingCount="2" stopTime="0.00" timeLoss="106.08" rerouteNo="0" devices="tripinfo_southwest_bottleneck_veh_000001" vType="car" speedFactor="1.06" vaporized=""/>
    <tripinfo id="southwest_bottleneck_veh_000009" depart="30.00" departLane="E18_1" departPos="5.10" departSpeed="13.03" departDelay="0.00" arrival="138.00" arrivalLane="-E9_2" arrivalPos="136.40" arrivalSpeed="11.83" duration="108.00" routeLength="399.41" waitingTime="66.00" waitingCount="2" stopTime="0.00" timeLoss="76.52" rerouteNo="0" devices="tripinfo_southwest_bottleneck_veh_000009" vType="car" speedFactor="0.94" vaporized=""/>
    <tripinfo id="southwest_bottleneck_veh_000017" depart="60.00" departLane="E18_1" departPos="5.10" departSpeed="12.20" departDelay="0.00" arrival="141.00" arrivalLane="-E9_2" arrivalPos="136.40" arrivalSpeed="11.19" duration="81.00" routeLength="399.41" waitingTime="34.00" waitingCount="2" stopTime="0.00" timeLoss="47.48" rerouteNo="0" devices="tripinfo_southwest_bottleneck_veh_000017" vType="car" speedFactor="0.88" vaporized=""/>
    <tripinfo id="southwest_bottleneck_veh_000007" depart="1.00" departLane="E17_2" departPos="5.10" departSpeed="10.77" departDelay="1.00" arrival="180.00" arrivalLane="-E14_2" arrivalPos="136.40" arrivalSpeed="13.73" duration="179.00" routeLength="485.75" waitingTime="122.00" waitingCount="3" stopTime="0.00" timeLoss="142.52" rerouteNo="0" devices="tripinfo_southwest_bottleneck_veh_000007" vType="car" speedFactor="1.05" vaporized=""/>
    <tripinfo id="southwest_bottleneck_veh_000015" depart="31.00" departLane="E17_2" departPos="5.10" departSpeed="10.79" departDelay="1.00" arrival="183.00" arrivalLane="-E14_2" arrivalPos="136.40" arrivalSpeed="12.57" duration="152.00" routeLength="485.75" waitingTime="90.00" waitingCount="3" stopTime="0.00" timeLoss="114.44" rerouteNo="0" devices="tripinfo_southwest_bottleneck_veh_000015" vType="car" speedFactor="0.99" vaporized=""/>
    <tripinfo id="southwest_bottleneck_veh_000019" depart="61.00" departLane="E18_1" departPos="5.10" departSpeed="9.46" departDelay="1.00" arrival="185.00" arrivalLane="-E14_2" arrivalPos="136.40" arrivalSpeed="12.77" duration="124.00" routeLength="488.44" waitingTime="60.00" waitingCount="2" stopTime="0.00" timeLoss="84.56" rerouteNo="0" devices="tripinfo_southwest_bottleneck_veh_000019" vType="car" speedFactor="0.94" vaporized=""/>
    <tripinfo id="southwest_bottleneck_veh_000003" depart="1.00" departLane="E18_1" departPos="5.10" departSpeed="11.46" departDelay="1.00" arrival="187.00" arrivalLane="-E14_2" arrivalPos="136.40" arrivalSpeed="12.98" duration="186.00" routeLength="488.44" waitingTime="120.00" waitingCount="4" stopTime="0.00" timeLoss="149.23" rerouteNo="0" devices="tripinfo_southwest_bottleneck_veh_000003" vType="car" speedFactor="1.01" vaporized=""/>
    <tripinfo id="southwest_bottleneck_veh_000022" depart="60.00" departLane="E17_1" departPos="5.10" departSpeed="13.89" departDelay="0.00" arrival="195.00" arrivalLane="E3_0" arrivalPos="136.40" arrivalSpeed="13.32" duration="135.00" routeLength="491.13" waitingTime="81.00" waitingCount="3" stopTime="0.00" timeLoss="98.99" rerouteNo="0" devices="tripinfo_southwest_bottleneck_veh_000022" vType="car" speedFactor="1.01" vaporized=""/>
    <tripinfo id="southwest_bottleneck_veh_000002" depart="0.00" departLane="E18_0" departPos="5.10" departSpeed="13.03" departDelay="0.00" arrival="198.00" arrivalLane="E4_1" arrivalPos="136.40" arrivalSpeed="12.75" duration="198.00" routeLength="491.13" waitingTime="140.00" waitingCount="3" stopTime="0.00" timeLoss="159.35" rerouteNo="0" devices="tripinfo_southwest_bottleneck_veh_000002" vType="car" speedFactor="0.94" vaporized=""/>
    <tripinfo id="southwest_bottleneck_veh_000021" depart="60.00" departLane="E17_2" departPos="5.10" departSpeed="13.89" departDelay="0.00" arrival="198.00" arrivalLane="-E10_1" arrivalPos="136.40" arrivalSpeed="13.52" duration="138.00" routeLength="399.41" waitingTime="96.00" waitingCount="2" stopTime="0.00" timeLoss="108.76" rerouteNo="0" devices="tripinfo_southwest_bottleneck_veh_000021" vType="car" speedFactor="1.02" vaporized=""/>
    <tripinfo id="southwest_bottleneck_veh_000030" depart="90.00" departLane="E17_1" departPos="5.10" departSpeed="12.94" departDelay="0.00" arrival="199.00" arrivalLane="E3_0" arrivalPos="136.40" arrivalSpeed="11.72" duration="109.00" routeLength="491.13" waitingTime="47.00" waitingCount="3" stopTime="0.00" timeLoss="69.53" rerouteNo="0" devices="tripinfo_southwest_bottleneck_veh_000030" vType="car" speedFactor="0.93" vaporized=""/>
    <tripinfo id="southwest_bottleneck_veh_000010" depart="30.00" departLane="E18_0" departPos="5.10" departSpeed="11.90" departDelay="0.00" arrival="201.00" arrivalLane="E4_1" arrivalPos="136.40" arrivalSpeed="11.07" duration="171.00" routeLength="491.13" waitingTime="111.00" waitingCount="3" stopTime="0.00" timeLoss="128.59" rerouteNo="0" devices="tripinfo_southwest_bottleneck_veh_000010" vType="car" speedFactor="0.86" vaporized=""/>
    <tripinfo id="southwest_bottleneck_veh_000029" depart="90.00" departLane="E17_2" departPos="5.10" departSpeed="13.89" departDelay="0.00" arrival="201.00" arrivalLane="-E10_1" arrivalPos="136.40" arrivalSpeed="13.64" duration="111.00" routeLength="399.41" waitingTime="66.00" waitingCount="2" stopTime="0.00" timeLoss="81.45" rerouteNo="0" devices="tripinfo_southwest_bottleneck_veh_000029" vType="car" speedFactor="1.13" vaporized=""/>
    <tripinfo id="southwest_bottleneck_veh_000038" depart="120.00" departLane="E17_1" departPos="5.10" departSpeed="13.89" departDelay="0.00" arrival="201.00" arrivalLane="E3_0" arrivalPos="136.40" arrivalSpeed="13.15" duration="81.00" routeLength="491.13" waitingTime="27.00" waitingCount="2" stopTime="0.00" timeLoss="44.42" rerouteNo="0" devices="tripinfo_southwest_bottleneck_veh_000038" vType="car" speedFactor="1.18" vaporized=""/>
    <tripinfo id="southwest_bottleneck_veh_000018" depart="60.00" departLane="E18_0" departPos="5.10" departSpeed="13.08" departDelay="0.00" arrival="202.00" arrivalLane="E4_1" arrivalPos="136.40" arrivalSpeed="12.49" duration="142.00" routeLength="491.13" waitingTime="82.00" waitingCount="2" stopTime="0.00" timeLoss="103.32" rerouteNo="0" devices="tripinfo_southwest_bottleneck_veh_000018" vType="car" speedFactor="0.94" vaporized=""/>
    <tripinfo id="southwest_bottleneck_veh_000008" depart="2.00" departLane="E17_2" departPos="5.10" departSpeed="6.00" departDelay="2.00" arrival="205.00" arrivalLane="E5_1" arrivalPos="136.40" arrivalSpeed="12.23" duration="203.00" routeLength="595.64" waitingTime="126.00" waitingCount="4" stopTime="0.00" timeLoss="152.49" rerouteNo="0" devices="tripinfo_southwest_bottleneck_veh_000008" vType="car" speedFactor="0.89" vaporized=""/>
    <tripinfo id="southwest_bottleneck_veh_000012" depart="32.00" departLane="E18_1" departPos="5.10" departSpeed="6.00" departDelay="2.00" arrival="207.00" arrivalLane="E5_1" arrivalPos="136.40" arrivalSpeed="13.69" duration="175.00" routeLength="598.33" waitingTime="96.00" waitingCount="4" stopTime="0.00" timeLoss="130.66" rerouteNo="0" devices="tripinfo_southwest_bottleneck_veh_000012" vType="car" speedFactor="1.03" vaporized=""/>
    <tripinfo id="southwest_bottleneck_veh_000037" depart="120.00" departLane="E17_2" departPos="5.10" departSpeed="13.52" departDelay="0.00" arrival="207.00" arrivalLane="-E10_1" arrivalPos="136.40" arrivalSpeed="13.31" duration="87.00" routeLength="399.41" waitingTime="42.00" waitingCount="2" stopTime="0.00" timeLoss="56.29" rerouteNo="0" devices="tripinfo_southwest_bottleneck_veh_000037" vType="car" speedFactor="0.97" vaporized=""/>
    <tripinfo id="southwest_bottleneck_veh_000016" depart="32.00" departLane="E17_2" departPos="5.10" departSpeed="7.61" departDelay="2.00" arrival="209.00" arrivalLane="E5_1" arrivalPos="136.40" arrivalSpeed="11.98" duration="177.00" routeLength="595.64" waitingTime="92.00" waitingCount="5" stopTime="0.00" timeLoss="128.08" rerouteNo="0" devices="tripinfo_southwest_bottleneck_veh_000016" vType="car" speedFactor="0.93" vaporized=""/>
    <tripinfo id="southwest_bottleneck_veh_000020" depart="62.00" departLane="E18_1" departPos="5.10" departSpeed="5.91" departDelay="2.00" arrival="210.00" arrivalLane="E5_1" arrivalPos="136.40" arrivalSpeed="13.89" duration="148.00" routeLength="598.33" waitingTime="67.00" waitingCount="5" stopTime="0.00" timeLoss="104.24" rerouteNo="0" devices="tripinfo_southwest_bottleneck_veh_000020" vType="car" speedFactor="1.16" vaporized=""/>
    <tripinfo id="southwest_bottleneck_veh_000004" depart="2.00" departLane="E18_1" departPos="5.10" departSpeed="8.03" departDelay="2.00" arrival="212.00" arrivalLane="E5_1" arrivalPos="136.40" arrivalSpeed="13.60" duration="210.00" routeLength="598.33" waitingTime="123.00" waitingCount="6" stopTime="0.00" timeLoss="165.60" rerouteNo="0" devices="tripinfo_southwest_bottleneck_veh_000004" vType="car" speedFactor="1.08" vaporized=""/>
    <tripinfo id="southwest_bottleneck_veh_000025" depart="90.00" departLane="E18_1" departPos="5.10" departSpeed="11.47" departDelay="0.00" arrival="228.00" arrivalLane="-E9_2" arrivalPos="136.40" arrivalSpeed="11.06" duration="138.00" routeLength="399.41" waitingTime="91.00" waitingCount="2" stopTime="0.00" timeLoss="102.09" rerouteNo="0" devices="tripinfo_southwest_bottleneck_veh_000025" vType="car" speedFactor="0.83" vaporized=""/>
    <tripinfo id="southwest_bottleneck_veh_000033" depart="120.00" departLane="E18_1" departPos="5.10" departSpeed="13.89" departDelay="0.00" arrival="230.00" arrivalLane="-E9_2" arrivalPos="136.40" arrivalSpeed="12.97" duration="110.00" routeLength="399.41" waitingTime="65.00" waitingCount="2" stopTime="0.00" timeLoss="80.01" rerouteNo="0" devices="tripinfo_southwest_bottleneck_veh_000033" vType="car" speedFactor="1.01" vaporized=""/>
    <tripinfo id="southwest_bottleneck_veh_000041" depart="150.00" departLane="E18_1" departPos="5.10" departSpeed="13.89" departDelay="0.00" arrival="231.00" arrivalLane="-E9_2" arrivalPos="136.40" arrivalSpeed="13.80" duration="81.00" routeLength="399.41" waitingTime="37.00" waitingCount="2" stopTime="0.00" timeLoss="51.72" rerouteNo="0" devices="tripinfo_southwest_bottleneck_veh_000041" vType="car" speedFactor="1.03" vaporized=""/>
    <tripinfo id="southwest_bottleneck_veh_000011" depart="31.00" departLane="E18_1" departPos="5.10" departSpeed="9.87" departDelay="1.00" arrival="271.00" arrivalLane="-E14_2" arrivalPos="136.40" arrivalSpeed="12.63" duration="240.00" routeLength="488.44" waitingTime="170.00" waitingCount="5" stopTime="0.00" timeLoss="203.57" rerouteNo="0" devices="tripinfo_southwest_bottleneck_veh_000011" vType="car" speedFactor="1.09" vaporized=""/>
    <tripinfo id="southwest_bottleneck_veh_000023" depart="61.00" departLane="E17_2" departPos="5.10" departSpeed="10.70" departDelay="1.00" arrival="273.00" arrivalLane="-E14_2" arrivalPos="136.40" arrivalSpeed="12.39" duration="212.00" routeLength="485.75" waitingTime="154.00" waitingCount="3" stopTime="0.00" timeLoss="173.85" rerouteNo="0" devices="tripinfo_southwest_bottleneck_veh_000023" vType="car" speedFactor="0.97" vaporized=""/>
    <tripinfo id="southwest_bottleneck_veh_000031" depart="91.00" departLane="E17_2" departPos="5.10" departSpeed="10.20" departDelay="1.00" arrival="275.00" arrivalLane="-E14_2" arrivalPos="136.40" arrivalSpeed="13.41" duration="184.00" routeLength="485.75" waitingTime="123.00" waitingCount="3" stopTime="0.00" timeLoss="147.30" rerouteNo="0" devices="tripinfo_southwest_bottleneck_veh_000031" vType="car" speedFactor="1.18" vaporized=""/>
    <tripinfo id="southwest_bottleneck_veh_000027" depart="91.00" departLane="E18_1" departPos="5.10" departSpeed="8.36" departDelay="1.00" arrival="278.00" arrivalLane="-E14_2" arrivalPos="136.40" arrivalSpeed="12.41" duration="187.00" routeLength="488.44" waitingTime="119.00" waitingCount="3" stopTime="0.00" timeLoss="146.52" rerouteNo="0" devices="tripinfo_southwest_bottleneck_veh_000027" vType="car" speedFactor="0.92" vaporized=""/>
    <tripinfo id="southwest_bottleneck_veh_000035" depart="121.00" departLane="E18_1" departPos="5.10" departSpeed="11.13" departDelay="1.00" arrival="279.00" arrivalLane="-E14_2" arrivalPos="136.40" arrivalSpeed="12.74" duration="158.00" routeLength="488.44" waitingTime="92.00" waitingCount="3" stopTime="0.00" timeLoss="121.04" rerouteNo="0" devices="tripinfo_southwest_bottleneck_veh_000035" vType="car" speedFactor="0.99" vaporized=""/>
    <tripinfo id="southwest_bottleneck_veh_000046" depart="150.00" departLane="E17_1" departPos="5.10" departSpeed="13.89" departDelay="0.00" arrival="285.00" arrivalLane="E3_0" arrivalPos="136.40" arrivalSpeed="13.36" duration="135.00" routeLength="491.13" waitingTime="81.00" waitingCount="3" stopTime="0.00" timeLoss="98.92" rerouteNo="0" devices="tripinfo_southwest_bottleneck_veh_000046" vType="car" speedFactor="1.09" vaporized=""/>
    <tripinfo id="southwest_bottleneck_veh_000054" depart="180.00" departLane="E17_1" departPos="5.10" departSpeed="13.89" departDelay="0.00" arrival="287.00" arrivalLane="E3_0" arrivalPos="136.40" arrivalSpeed="13.23" duration="107.00" routeLength="491.13" waitingTime="51.00" waitingCount="3" stopTime="0.00" timeLoss="71.18" rerouteNo="0" devices="tripinfo_southwest_bottleneck_veh_000054" vType="car" speedFactor="1.10" vaporized=""/>
    <tripinfo id="southwest_bottleneck_veh_000026" depart="90.00" departLane="E18_0" departPos="5.10" departSpeed="12.12" departDelay="0.00" arrival="288.00" arrivalLane="E4_1" arrivalPos="136.40" arrivalSpeed="11.23" duration="198.00" routeLength="491.13" waitingTime="139.00" waitingCount="3" stopTime="0.00" timeLoss="156.96" rerouteNo="0" devices="tripinfo_southwest_bottleneck_veh_000026" vType="car" speedFactor="0.87" vaporized=""/>
    <tripinfo id="southwest_bottleneck_veh_000045" depart="150.00" departLane="E17_2" departPos="5.10" departSpeed="13.89" departDelay="0.00" arrival="289.00" arrivalLane="-E10_1" arrivalPos="136.40" arrivalSpeed="13.82" duration="139.00" routeLength="399.41" waitingTime="97.00" waitingCount="2" stopTime="0.00" timeLoss="108.94" rerouteNo="0" devices="tripinfo_southwest_bottleneck_veh_000045" vType="car" speedFactor="1.04" vaporized=""/>
    <tripinfo id="southwest_bottleneck_veh_000034" depart="120.00" departLane="E18_0" departPos="5.10" departSpeed="13.89" departDelay="0.00" arrival="290.00" arrivalLane="E4_1" arrivalPos="136.40" arrivalSpeed="12.64" duration="170.00" routeLength="491.13" waitingTime="108.00" waitingCount="3" stopTime="0.00" timeLoss="134.06" rerouteNo="0" devices="tripinfo_southwest_bottleneck_veh_000034" vType="car" speedFactor="1.17" vaporized=""/>
    <tripinfo id="southwest_bottleneck_veh_000062" depart="210.00" departLane="E17_1" departPos="5.10" departSpeed="13.89" departDelay="0.00" arrival="290.00" arrivalLane="E3_0" arrivalPos="136.40" arrivalSpeed="13.01" duration="80.00" routeLength="491.13" waitingTime="26.00" waitingCount="2" stopTime="0.00" timeLoss="43.47" rerouteNo="0" devices="tripinfo_southwest_bottleneck_veh_000062" vType="car" speedFactor="1.12" vaporized=""/>
    <tripinfo id="southwest_bottleneck_veh_000053" depart="180.00" departLane="E17_2" departPos="5.10" departSpeed="13.89" departDelay="0.00" arrival="291.00" arrivalLane="-E10_1" arrivalPos="136.40" arrivalSpeed="12.62" duration="111.00" routeLength="399.41" waitingTime="65.00" waitingCount="2" stopTime="0.00" timeLoss="80.69" rerouteNo="0" devices="tripinfo_southwest_bottleneck_veh_000053" vType="car" speedFactor="1.02" vaporized=""/>
    <tripinfo id="southwest_bottleneck_veh_000042" depart="150.00" departLane="E18_0" departPos="5.10" departSpeed="13.29" departDelay="0.00" arrival="292.00" arrivalLane="E4_1" arrivalPos="136.40" arrivalSpeed="12.98" duration="142.00" routeLength="491.13" waitingTime="81.00" waitingCount="2" stopTime="0.00" timeLoss="103.90" rerouteNo="0" devices="tripinfo_southwest_bottleneck_veh_000042" vType="car" speedFactor="0.96" vaporized=""/>
    <tripinfo id="southwest_bottleneck_veh_000024" depart="62.00" departLane="E17_2" departPos="5.10" departSpeed="7.45" departDelay="2.00" arrival="295.00" arrivalLane="E5_1" arrivalPos="136.40" arrivalSpeed="11.70" duration="233.00" routeLength="595.64" waitingTime="159.00" waitingCount="4" stopTime="0.00" timeLoss="182.53" rerouteNo="0" devices="tripinfo_southwest_bottleneck_veh_000024" vType="car" speedFactor="0.89" vaporized=""/>
    <tripinfo id="southwest_bottleneck_veh_000032" depart="92.00" departLane="E17_2" departPos="5.10" departSpeed="5.40" departDelay="2.00" arrival="297.00" arrivalLane="E5_1" arrivalPos="136.40" arrivalSpeed="13.77" duration="205.00" routeLength="595.64" waitingTime="128.00" waitingCount="4" stopTime="0.00" timeLoss="160.04" rerouteNo="0" devices="tripinfo_southwest_bottleneck_veh_000032" vType="car" speedFactor="1.15" vaporized=""/>
    <tripinfo id="southwest_bottleneck_veh_000028" depart="92.00" departLane="E18_1" departPos="5.10" departSpeed="3.09" departDelay="2.00" arrival="298.00" arrivalLane="E5_1" arrivalPos="136.40" arrivalSpeed="12.31" duration="206.00" routeLength="598.33" waitingTime="122.00" waitingCount="5" stopTime="0.00" timeLoss="159.54" rerouteNo="0" devices="tripinfo_southwest_bottleneck_veh_000028" vType="car" speedFactor="0.95" vaporized=""/>
    <tripinfo id="southwest_bottleneck_veh_000036" depart="122.00" departLane="E18_1" departPos="5.10" departSpeed="7.69" departDelay="2.00" arrival="300.00" arrivalLane="E5_1" arrivalPos="136.40" arrivalSpeed="13.77" duration="178.00" routeLength="598.33" waitingTime="93.00" waitingCount="5" stopTime="0.00" timeLoss="134.09" rerouteNo="0" devices="tripinfo_southwest_bottleneck_veh_000036" vType="car" speedFactor="1.02" vaporized=""/>
    <tripinfo id="southwest_bottleneck_veh_000049" depart="180.00" departLane="E18_1" departPos="5.10" departSpeed="12.18" departDelay="0.00" arrival="317.00" arrivalLane="-E9_2" arrivalPos="136.40" arrivalSpeed="11.24" duration="137.00" routeLength="399.41" waitingTime="92.00" waitingCount="2" stopTime="0.00" timeLoss="103.27" rerouteNo="0" devices="tripinfo_southwest_bottleneck_veh_000049" vType="car" speedFactor="0.88" vaporized=""/>
    <tripinfo id="southwest_bottleneck_veh_000057" depart="210.00" departLane="E18_1" departPos="5.10" departSpeed="12.49" departDelay="0.00" arrival="319.00" arrivalLane="-E9_2" arrivalPos="136.40" arrivalSpeed="11.66" duration="109.00" routeLength="399.41" waitingTime="62.00" waitingCount="2" stopTime="0.00" timeLoss="76.13" rerouteNo="0" devices="tripinfo_southwest_bottleneck_veh_000057" vType="car" speedFactor="0.90" vaporized=""/>
    <tripinfo id="southwest_bottleneck_veh_000065" depart="240.00" departLane="E18_1" departPos="5.10" departSpeed="13.02" departDelay="0.00" arrival="321.00" arrivalLane="-E9_2" arrivalPos="136.40" arrivalSpeed="12.52" duration="81.00" routeLength="399.41" waitingTime="34.00" waitingCount="2" stopTime="0.00" timeLoss="49.21" rerouteNo="0" devices="tripinfo_southwest_bottleneck_veh_000065" vType="car" speedFactor="0.94" vaporized=""/>
    <tripinfo id="southwest_bottleneck_veh_000043" depart="151.00" departLane="E18_1" departPos="5.10" departSpeed="10.20" departDelay="1.00" arrival="360.00" arrivalLane="-E14_2" arrivalPos="136.40" arrivalSpeed="12.64" duration="209.00" routeLength="488.44" waitingTime="140.00" waitingCount="5" stopTime="0.00" timeLoss="173.09" rerouteNo="0" devices="tripinfo_southwest_bottleneck_veh_000043" vType="car" speedFactor="1.09" vaporized=""/>
    <tripinfo id="southwest_bottleneck_veh_000039" depart="121.00" departLane="E17_2" departPos="5.10" departSpeed="10.08" departDelay="1.00" arrival="363.00" arrivalLane="-E14_2" arrivalPos="136.40" arrivalSpeed="13.88" duration="242.00" routeLength="485.75" waitingTime="178.00" waitingCount="4" stopTime="0.00" timeLoss="205.28" rerouteNo="0" devices="tripinfo_southwest_bottleneck_veh_000039" vType="car" speedFactor="1.10" vaporized=""/>
    <tripinfo id="southwest_bottleneck_veh_000055" depart="181.00" departLane="E17_2" departPos="5.10" departSpeed="10.91" departDelay="1.00" arrival="365.00" arrivalLane="-E14_2" arrivalPos="136.40" arrivalSpeed="12.91" duration="184.00" routeLength="485.75" waitingTime="121.00" waitingCount="3" stopTime="0.00" timeLoss="146.71" rerouteNo="0" devices="tripinfo_southwest_bottleneck_veh_000055" vType="car" speedFactor="1.00" vaporized=""/>
    <tripinfo id="southwest_bottleneck_veh_000047" depart="151.00" departLane="E17_2" departPos="5.10" departSpeed="10.94" departDelay="1.00" arrival="368.00" arrivalLane="-E14_2" arrivalPos="136.40" arrivalSpeed="13.54" duration="217.00" routeLength="485.75" waitingTime="152.00" waitingCount="4" stopTime="0.00" timeLoss="179.02" rerouteNo="0" devices="tripinfo_southwest_bottleneck_veh_000047" vType="car" speedFactor="1.00" vaporized=""/>
    <tripinfo id="southwest_bottleneck_veh_000059" depart="211.00" departLane="E18_1" departPos="5.10" departSpeed="9.08" departDelay="1.00" arrival="369.00" arrivalLane="-E14_2" arrivalPos="136.40" arrivalSpeed="13.83" duration="158.00" routeLength="488.44" waitingTime="93.00" waitingCount="4" stopTime="0.00" timeLoss="121.48" rerouteNo="0" devices="tripinfo_southwest_bottleneck_veh_000059" vType="car" speedFactor="1.02" vaporized=""/>
    <tripinfo id="southwest_bottleneck_veh_000070" depart="240.00" departLane="E17_1" departPos="5.10" departSpeed="13.89" departDelay="0.00" arrival="376.00" arrivalLane="E3_0" arrivalPos="136.40" arrivalSpeed="12.89" duration="136.00" routeLength="491.13" waitingTime="80.00" waitingCount="3" stopTime="0.00" timeLoss="99.23" rerouteNo="0" devices="tripinfo_southwest_bottleneck_veh_000070" vType="car" speedFactor="1.02" vaporized=""/>
    <tripinfo id="southwest_bottleneck_veh_000050" depart="180.00" departLane="E18_0" departPos="5.10" departSpeed="11.81" departDelay="0.00" arrival="378.00" arrivalLane="E4_1" arrivalPos="136.40" arrivalSpeed="11.55" duration="198.00" routeLength="491.13" waitingTime="138.00" waitingCount="3" stopTime="0.00" timeLoss="155.49" rerouteNo="0" devices="tripinfo_southwest_bottleneck_veh_000050" vType="car" speedFactor="0.85" vaporized=""/>
    <tripinfo id="southwest_bottleneck_veh_000078" depart="270.00" departLane="E17_1" departPos="5.10" departSpeed="13.64" departDelay="0.00" arrival="378.00" arrivalLane="E3_0" arrivalPos="136.40" arrivalSpeed="12.38" duration="108.00" routeLength="491.13" waitingTime="49.00" waitingCount="3" stopTime="0.00" timeLoss="70.81" rerouteNo="0" devices="tripinfo_southwest_bottleneck_veh_000078" vType="car" speedFactor="0.98" vaporized=""/>
    <tripinfo id="southwest_bottleneck_veh_000061" depart="210.00" departLane="E17_2" departPos="5.10" departSpeed="13.89" departDelay="0.00" arrival="379.00" arrivalLane="-E10_1" arrivalPos="136.40" arrivalSpeed="13.61" duration="169.00" routeLength="399.41" waitingTime="119.00" waitingCount="3" stopTime="0.00" timeLoss="139.34" rerouteNo="0" devices="tripinfo_southwest_bottleneck_veh_000061" vType="car" speedFactor="1.08" vaporized=""/>
    <tripinfo id="southwest_bottleneck_veh_000058" depart="210.00" departLane="E18_0" departPos="5.10" departSpeed="13.89" departDelay="0.00" arrival="380.00" arrivalLane="E4_1" arrivalPos="136.40" arrivalSpeed="12.89" duration="170.00" routeLength="491.13" waitingTime="110.00" waitingCount="3" stopTime="0.00" timeLoss="133.58" rerouteNo="0" devices="tripinfo_southwest_bottleneck_veh_000058" vType="car" speedFactor="1.14" vaporized=""/>
    <tripinfo id="southwest_bottleneck_veh_000086" depart="300.00" departLane="E17_1" departPos="5.10" departSpeed="13.56" departDelay="0.00" arrival="380.00" arrivalLane="E3_0" arrivalPos="136.40" arrivalSpeed="13.42" duration="80.00" routeLength="491.13" waitingTime="27.00" waitingCount="2" stopTime="0.00" timeLoss="43.31" rerouteNo="0" devices="tripinfo_southwest_bottleneck_veh_000086" vType="car" speedFactor="0.98" vaporized=""/>
    <tripinfo id="southwest_bottleneck_veh_000066" depart="240.00" departLane="E18_0" departPos="5.10" departSpeed="12.26" departDelay="0.00" arrival="382.00" arrivalLane="E4_1" arrivalPos="136.40" arrivalSpeed="11.24" duration="142.00" routeLength="491.13" waitingTime="83.00" waitingCount="2" stopTime="0.00" timeLoss="100.65" rerouteNo="0" devices="tripinfo_southwest_bottleneck_veh_000066" vType="car" speedFactor="0.88" vaporized=""/>
    <tripinfo id="southwest_bottleneck_veh_000044" depart="152.00" departLane="E18_1" departPos="5.10" departSpeed="7.05" departDelay="2.00" arrival="384.00" arrivalLane="E5_1" arrivalPos="136.40" arrivalSpeed="13.60" duration="232.00" routeLength="598.33" waitingTime="145.00" waitingCount="6" stopTime="0.00" timeLoss="187.51" rerouteNo="0" devices="tripinfo_southwest_bottleneck_veh_000044" vType="car" speedFactor="1.04" vaporized=""/>
    <tripinfo id="southwest_bottleneck_veh_000040" depart="122.00" departLane="E17_2" departPos="5.10" departSpeed="5.51" departDelay="2.00" arrival="387.00" arrivalLane="E5_1" arrivalPos="136.40" arrivalSpeed="12.10" duration="265.00" routeLength="595.64" waitingTime="179.00" waitingCount="6" stopTime="0.00" timeLoss="215.07" rerouteNo="0" devices="tripinfo_southwest_bottleneck_veh_000040" vType="car" speedFactor="0.90" vaporized=""/>
    <tripinfo id="southwest_bottleneck_veh_000052" depart="182.00" departLane="E18_1" departPos="5.10" departSpeed="5.18" departDelay="2.00" arrival="389.00" arrivalLane="E5_1" arrivalPos="136.40" arrivalSpeed="13.75" duration="207.00" routeLength="598.33" waitingTime="124.00" waitingCount="5" stopTime="0.00" timeLoss="162.66" rerouteNo="0" devices="tripinfo_southwest_bottleneck_veh_000052" vType="car" speedFactor="1.17" vaporized=""/>
    <tripinfo id="southwest_bottleneck_veh_000069" depart="240.00" departLane="E17_2" departPos="5.10" departSpeed="13.89" departDelay="0.00" arrival="390.00" arrivalLane="-E10_1" arrivalPos="136.40" arrivalSpeed="12.73" duration="150.00" routeLength="399.41" waitingTime="101.00" waitingCount="2" stopTime="0.00" timeLoss="120.25" rerouteNo="0" devices="tripinfo_southwest_bottleneck_veh_000069" vType="car" speedFactor="1.04" vaporized=""/>
    <tripinfo id="southwest_bottleneck_veh_000048" depart="152.00" departLane="E17_2" departPos="5.10" departSpeed="6.53" departDelay="2.00" arrival="391.00" arrivalLane="E5_1" arrivalPos="136.40" arrivalSpeed="11.32" duration="239.00" routeLength="595.64" waitingTime="151.00" waitingCount="6" stopTime="0.00" timeLoss="189.68" rerouteNo="0" devices="tripinfo_southwest_bottleneck_veh_000048" vType="car" speedFactor="0.90" vaporized=""/>
    <tripinfo id="southwest_bottleneck_veh_000073" depart="270.00" departLane="E18_1" departPos="5.10" departSpeed="13.06" departDelay="0.00" arrival="407.00" arrivalLane="-E9_2" arrivalPos="136.40" arrivalSpeed="12.47" duration="137.00" routeLength="399.41" waitingTime="93.00" waitingCount="2" stopTime="0.00" timeLoss="105.19" rerouteNo="0" devices="tripinfo_southwest_bottleneck_veh_000073" vType="car" speedFactor="0.94" vaporized=""/>