<?xml version="1.0" encoding="UTF-8"?>

<!-- generated on 2026-06-28T15:07:59.229366+08:00 by Eclipse SUMO sumo 1.27.0
<sumoConfiguration xmlns:xsi="http://www.w3.org/2001/XMLSchema-instance" xsi:noNamespaceSchemaLocation="http://sumo.dlr.de/xsd/sumoConfiguration.xsd">

    <input>
        <net-file value="test.net.xml"/>
        <route-files value="1.rou.xml"/>
    </input>

    <output>
        <tripinfo-output value="tripinfo_1.xml"/>
    </output>

    <time>
        <begin value="0"/>
        <end value="3000"/>
        <step-length value="1"/>
    </time>

    <processing>
        <time-to-teleport value="-1"/>
    </processing>

    <report>
        <verbose value="true"/>
        <duration-log.statistics value="true"/>
        <no-step-log value="true"/>
    </report>

    <gui_only>
        <quit-on-end value="false"/>
        <start value="false"/>
    </gui_only>

</sumoConfiguration>
-->

<tripinfos xmlns:xsi="http://www.w3.org/2001/XMLSchema-instance" xsi:noNamespaceSchemaLocation="http://sumo.dlr.de/xsd/tripinfo_file.xsd">
    <tripinfo id="veh_3" depart="4.00" departLane="E14_1" departPos="5.10" departSpeed="13.89" departDelay="0.76" arrival="35.00" arrivalLane="E19_1" arrivalPos="136.40" arrivalSpeed="13.58" duration="31.00" routeLength="402.10" waitingTime="0.00" waitingCount="0" stopTime="0.00" timeLoss="1.40" rerouteNo="0" devices="tripinfo_veh_3" vType="car" speedFactor="1.08" vaporized=""/>
    <tripinfo id="veh_2" depart="3.00" departLane="E10_2" departPos="5.10" departSpeed="13.89" departDelay="0.27" arrival="67.00" arrivalLane="E5_1" arrivalPos="136.40" arrivalSpeed="13.17" duration="64.00" routeLength="506.61" waitingTime="13.00" waitingCount="2" stopTime="0.00" timeLoss="27.06" rerouteNo="0" devices="tripinfo_veh_2" vType="car" speedFactor="1.01" vaporized=""/>
    <tripinfo id="veh_4" depart="6.00" departLane="E10_2" departPos="5.10" departSpeed="13.89" departDelay="0.09" arrival="70.00" arrivalLane="E5_1" arrivalPos="136.40" arrivalSpeed="13.22" duration="64.00" routeLength="506.61" waitingTime="12.00" waitingCount="2" stopTime="0.00" timeLoss="26.30" rerouteNo="0" devices="tripinfo_veh_4" vType="car" speedFactor="1.03" vaporized=""/>
    <tripinfo id="veh_5" depart="9.00" departLane="E10_2" departPos="5.10" departSpeed="11.54" departDelay="0.84" arrival="76.00" arrivalLane="E5_1" arrivalPos="136.40" arrivalSpeed="10.44" duration="67.00" routeLength="506.61" waitingTime="8.00" waitingCount="2" stopTime="0.00" timeLoss="21.50" rerouteNo="0" devices="tripinfo_veh_5" vType="car" speedFactor="0.83" vaporized=""/>
    <tripinfo id="veh_8" depart="14.00" departLane="E10_2" departPos="5.10" departSpeed="13.03" departDelay="0.10" arrival="77.00" arrivalLane="E5_1" arrivalPos="136.40" arrivalSpeed="12.12" duration="63.00" routeLength="506.61" waitingTime="4.00" waitingCount="2" stopTime="0.00" timeLoss="23.22" rerouteNo="0" devices="tripinfo_veh_8" vType="car" speedFactor="0.94" vaporized=""/>
    <tripinfo id="veh_12" depart="16.00" departLane="E10_2" departPos="5.10" departSpeed="13.89" departDelay="0.09" arrival="79.00" arrivalLane="E5_1" arrivalPos="136.40" arrivalSpeed="12.95" duration="63.00" routeLength="506.61" waitingTime="4.00" waitingCount="2" stopTime="0.00" timeLoss="25.47" rerouteNo="0" devices="tripinfo_veh_12" vType="car" speedFactor="1.05" vaporized=""/>
    <tripinfo id="veh_14" depart="19.00" departLane="E10_2" departPos="5.10" departSpeed="13.77" departDelay="0.54" arrival="81.00" arrivalLane="E5_1" arrivalPos="136.40" arrivalSpeed="12.91" duration="62.00" routeLength="506.61" waitingTime="2.00" waitingCount="1" stopTime="0.00" timeLoss="23.81" rerouteNo="0" devices="tripinfo_veh_14" vType="car" speedFactor="0.99" vaporized=""/>
    <tripinfo id="veh_16" depart="21.00" departLane="E10_2" departPos="5.10" departSpeed="12.20" departDelay="0.47" arrival="83.00" arrivalLane="E5_1" arrivalPos="136.40" arrivalSpeed="10.95" duration="62.00" routeLength="506.61" waitingTime="1.00" waitingCount="1" stopTime="0.00" timeLoss="19.17" rerouteNo="0" devices="tripinfo_veh_16" vType="car" speedFactor="0.88" vaporized=""/>
    <tripinfo id="veh_27" depart="42.00" departLane="E9_1" departPos="5.10" departSpeed="7.46" departDelay="2.00" arrival="88.00" arrivalLane="-E14_2" arrivalPos="136.40" arrivalSpeed="13.07" duration="46.00" routeLength="399.41" waitingTime="3.00" waitingCount="1" stopTime="0.00" timeLoss="14.97" rerouteNo="0" devices="tripinfo_veh_27" vType="car" speedFactor="0.95" vaporized=""/>
    <tripinfo id="veh_0" depart="3.00" departLane="-E2_0" departPos="5.10" departSpeed="13.89" departDelay="0.96" arrival="103.00" arrivalLane="-E17_0" arrivalPos="136.40" arrivalSpeed="12.88" duration="100.00" routeLength="577.47" waitingTime="39.00" waitingCount="3" stopTime="0.00" timeLoss="57.05" rerouteNo="0" devices="tripinfo_veh_0" vType="car" speedFactor="1.06" vaporized=""/>
    <tripinfo id="veh_10" depart="15.00" departLane="E9_0" departPos="5.10" departSpeed="13.89" departDelay="0.55" arrival="105.00" arrivalLane="-E18_1" arrivalPos="136.40" arrivalSpeed="13.06" duration="90.00" routeLength="383.93" waitingTime="48.00" waitingCount="2" stopTime="0.00" timeLoss="61.32" rerouteNo="0" devices="tripinfo_veh_10" vType="car" speedFactor="1.09" vaporized=""/>
    <tripinfo id="veh_1" depart="3.00" departLane="-E5_1" departPos="5.10" departSpeed="13.03" departDelay="0.91" arrival="107.00" arrivalLane="-E18_1" arrivalPos="136.40" arrivalSpeed="12.09" duration="104.00" routeLength="613.81" waitingTime="39.00" waitingCount="3" stopTime="0.00" timeLoss="56.17" rerouteNo="0" devices="tripinfo_veh_1" vType="car" speedFactor="0.94" vaporized=""/>
    <tripinfo id="veh_28" depart="44.00" departLane="E14_1" departPos="5.10" departSpeed="13.89" departDelay="0.24" arrival="113.00" arrivalLane="E19_1" arrivalPos="136.40" arrivalSpeed="13.38" duration="69.00" routeLength="402.10" waitingTime="32.00" waitingCount="1" stopTime="0.00" timeLoss="39.40" rerouteNo="0" devices="tripinfo_veh_28" vType="car" speedFactor="1.13" vaporized=""/>
    <tripinfo id="veh_30" depart="49.00" departLane="E14_1" departPos="5.10" departSpeed="13.89" departDelay="0.09" arrival="115.00" arrivalLane="E19_1" arrivalPos="136.40" arrivalSpeed="12.98" duration="66.00" routeLength="402.10" waitingTime="30.00" waitingCount="1" stopTime="0.00" timeLoss="36.23" rerouteNo="0" devices="tripinfo_veh_30" vType="car" speedFactor="1.18" vaporized=""/>
    <tripinfo id="veh_21" depart="32.00" departLane="E10_1" departPos="5.10" departSpeed="13.89" departDelay="0.69" arrival="116.00" arrivalLane="-E17_0" arrivalPos="136.40" arrivalSpeed="12.62" duration="84.00" routeLength="383.93" waitingTime="47.00" waitingCount="1" stopTime="0.00" timeLoss="55.90" rerouteNo="0" devices="tripinfo_veh_21" vType="car" speedFactor="1.01" vaporized=""/>
    <tripinfo id="veh_41" depart="77.00" departLane="E14_1" departPos="5.10" departSpeed="13.29" departDelay="0.48" arrival="117.00" arrivalLane="E19_1" arrivalPos="136.40" arrivalSpeed="12.58" duration="40.00" routeLength="402.10" waitingTime="2.00" waitingCount="1" stopTime="0.00" timeLoss="9.64" rerouteNo="0" devices="tripinfo_veh_41" vType="car" speedFactor="0.96" vaporized=""/>
    <tripinfo id="veh_38" depart="73.00" departLane="E10_1" departPos="5.10" departSpeed="13.89" departDelay="0.73" arrival="121.00" arrivalLane="-E17_0" arrivalPos="136.40" arrivalSpeed="13.22" duration="48.00" routeLength="383.93" waitingTime="9.00" waitingCount="1" stopTime="0.00" timeLoss="19.88" rerouteNo="0" devices="tripinfo_veh_38" vType="car" speedFactor="1.10" vaporized=""/>
    <tripinfo id="veh_54" depart="92.00" departLane="E14_1" departPos="5.10" departSpeed="13.89" departDelay="0.16" arrival="123.00" arrivalLane="E19_1" arrivalPos="136.40" arrivalSpeed="13.53" duration="31.00" routeLength="402.10" waitingTime="0.00" waitingCount="0" stopTime="0.00" timeLoss="1.36" rerouteNo="0" devices="tripinfo_veh_54" vType="car" speedFactor="1.00" vaporized=""/>
    <tripinfo id="veh_40" depart="77.00" departLane="E10_1" departPos="5.10" departSpeed="13.89" departDelay="0.57" arrival="124.00" arrivalLane="-E17_0" arrivalPos="136.40" arrivalSpeed="12.98" duration="47.00" routeLength="383.93" waitingTime="7.00" waitingCount="1" stopTime="0.00" timeLoss="18.07" rerouteNo="0" devices="tripinfo_veh_40" vType="car" speedFactor="1.03" vaporized=""/>
    <tripinfo id="veh_31" depart="52.00" departLane="-E2_1" departPos="5.10" departSpeed="13.89" departDelay="0.48" arrival="131.00" arrivalLane="E4_2" arrivalPos="136.40" arrivalSpeed="13.49" duration="79.00" routeLength="399.41" waitingTime="38.00" waitingCount="2" stopTime="0.00" timeLoss="49.77" rerouteNo="0" devices="tripinfo_veh_31" vType="car" speedFactor="1.15" vaporized=""/>
    <tripinfo id="veh_56" depart="95.00" departLane="-E2_1" departPos="5.10" departSpeed="12.49" departDelay="0.91" arrival="135.00" arrivalLane="E4_2" arrivalPos="136.40" arrivalSpeed="11.46" duration="40.00" routeLength="399.41" waitingTime="0.00" waitingCount="0" stopTime="0.00" timeLoss="7.34" rerouteNo="0" devices="tripinfo_veh_56" vType="car" speedFactor="0.90" vaporized=""/>
    <tripinfo id="veh_25" depart="40.00" departLane="E10_1" departPos="5.10" departSpeed="12.12" departDelay="0.40" arrival="150.00" arrivalLane="E19_0" arrivalPos="136.40" arrivalSpeed="11.72" duration="110.00" routeLength="488.44" waitingTime="51.00" waitingCount="3" stopTime="0.00" timeLoss="67.86" rerouteNo="0" devices="tripinfo_veh_25" vType="car" speedFactor="0.87" vaporized=""/>
    <tripinfo id="veh_50" depart="84.00" departLane="E14_0" departPos="5.10" departSpeed="11.87" departDelay="0.86" arrival="151.00" arrivalLane="-E9_1" arrivalPos="136.40" arrivalSpeed="11.37" duration="67.00" routeLength="383.93" waitingTime="27.00" waitingCount="1" stopTime="0.00" timeLoss="34.16" rerouteNo="0" devices="tripinfo_veh_50" vType="car" speedFactor="0.85" vaporized=""/>
    <tripinfo id="veh_64" depart="117.00" departLane="E14_2" departPos="5.10" departSpeed="13.02" departDelay="0.19" arrival="151.00" arrivalLane="E5_1" arrivalPos="136.40" arrivalSpeed="12.36" duration="34.00" routeLength="399.41" waitingTime="0.00" waitingCount="0" stopTime="0.00" timeLoss="2.74" rerouteNo="0" devices="tripinfo_veh_64" vType="car" speedFactor="0.94" vaporized=""/>
    <tripinfo id="veh_29" depart="46.00" departLane="E10_1" departPos="5.10" departSpeed="12.94" departDelay="0.39" arrival="152.00" arrivalLane="E19_0" arrivalPos="136.40" arrivalSpeed="12.92" duration="106.00" routeLength="488.44" waitingTime="45.00" waitingCount="3" stopTime="0.00" timeLoss="66.05" rerouteNo="0" devices="tripinfo_veh_29" vType="car" speedFactor="0.93" vaporized=""/>
    <tripinfo id="veh_11" depart="16.00" departLane="E10_1" departPos="5.10" departSpeed="13.89" departDelay="0.14" arrival="158.00" arrivalLane="E4_1" arrivalPos="136.40" arrivalSpeed="13.61" duration="142.00" routeLength="613.81" waitingTime="79.00" waitingCount="3" stopTime="0.00" timeLoss="96.91" rerouteNo="0" devices="tripinfo_veh_11" vType="car" speedFactor="1.03" vaporized=""/>
    <tripinfo id="veh_32" depart="54.00" departLane="E9_1" departPos="5.10" departSpeed="13.89" departDelay="0.94" arrival="158.00" arrivalLane="E5_1" arrivalPos="136.40" arrivalSpeed="13.05" duration="104.00" routeLength="509.30" waitingTime="57.00" waitingCount="1" stopTime="0.00" timeLoss="66.90" rerouteNo="0" devices="tripinfo_veh_32" vType="car" speedFactor="1.01" vaporized=""/>
    <tripinfo id="veh_18" depart="26.00" departLane="E10_2" departPos="5.10" departSpeed="13.00" departDelay="0.38" arrival="161.00" arrivalLane="E5_1" arrivalPos="136.40" arrivalSpeed="12.38" duration="135.00" routeLength="506.61" waitingTime="78.00" waitingCount="2" stopTime="0.00" timeLoss="95.37" rerouteNo="0" devices="tripinfo_veh_18" vType="car" speedFactor="0.94" vaporized=""/>
    <tripinfo id="veh_47" depart="80.00" departLane="E10_1" departPos="5.10" departSpeed="12.51" departDelay="0.71" arrival="162.00" arrivalLane="E4_1" arrivalPos="136.40" arrivalSpeed="12.20" duration="82.00" routeLength="613.81" waitingTime="11.00" waitingCount="2" stopTime="0.00" timeLoss="31.63" rerouteNo="0" devices="tripinfo_veh_47" vType="car" speedFactor="0.90" vaporized=""/>
    <tripinfo id="veh_19" depart="27.00" departLane="E10_2" departPos="5.10" departSpeed="9.32" departDelay="1.36" arrival="163.00" arrivalLane="E5_1" arrivalPos="136.40" arrivalSpeed="13.07" duration="136.00" routeLength="506.61" waitingTime="76.00" waitingCount="2" stopTime="0.00" timeLoss="98.70" rerouteNo="0" devices="tripinfo_veh_19" vType="car" speedFactor="1.16" vaporized=""/>
    <tripinfo id="veh_23" depart="33.00" departLane="E10_2" departPos="5.10" departSpeed="12.36" departDelay="0.52" arrival="166.00" arrivalLane="E5_1" arrivalPos="136.40" arrivalSpeed="11.92" duration="133.00" routeLength="506.61" waitingTime="74.00" waitingCount="2" stopTime="0.00" timeLoss="91.21" rerouteNo="0" devices="tripinfo_veh_23" vType="car" speedFactor="0.89" vaporized=""/>
    <tripinfo id="veh_35" depart="63.00" departLane="E10_2" departPos="5.10" departSpeed="13.89" departDelay="0.15" arrival="168.00" arrivalLane="E5_1" arrivalPos="136.40" arrivalSpeed="12.73" duration="105.00" routeLength="506.61" waitingTime="49.00" waitingCount="2" stopTime="0.00" timeLoss="67.51" rerouteNo="0" devices="tripinfo_veh_35" vType="car" speedFactor="1.02" vaporized=""/>
    <tripinfo id="veh_48" depart="82.00" departLane="E10_2" departPos="5.10" departSpeed="12.18" departDelay="0.69" arrival="171.00" arrivalLane="E5_1" arrivalPos="136.40" arrivalSpeed="12.18" duration="89.00" routeLength="506.61" waitingTime="29.00" waitingCount="2" stopTime="0.00" timeLoss="46.05" rerouteNo="0" devices="tripinfo_veh_48" vType="car" speedFactor="0.88" vaporized=""/>
    <tripinfo id="veh_53" depart="90.00" departLane="E10_2" departPos="5.10" departSpeed="13.89" departDelay="0.25" arrival="172.00" arrivalLane="E5_1" arrivalPos="136.40" arrivalSpeed="13.32" duration="82.00" routeLength="506.61" waitingTime="24.00" waitingCount="2" stopTime="0.00" timeLoss="45.20" rerouteNo="0" devices="tripinfo_veh_53" vType="car" speedFactor="1.10" vaporized=""/>
    <tripinfo id="veh_60" depart="108.00" departLane="E9_1" departPos="5.10" departSpeed="13.89" departDelay="0.87" arrival="179.00" arrivalLane="-E14_2" arrivalPos="136.40" arrivalSpeed="12.71" duration="71.00" routeLength="399.41" waitingTime="31.00" waitingCount="1" stopTime="0.00" timeLoss="41.54" rerouteNo="0" devices="tripinfo_veh_60" vType="car" speedFactor="1.08" vaporized=""/>
    <tripinfo id="veh_6" depart="13.00" departLane="E9_1" departPos="5.10" departSpeed="13.89" departDelay="0.38" arrival="194.00" arrivalLane="E5_0" arrivalPos="136.40" arrivalSpeed="12.81" duration="181.00" routeLength="681.98" waitingTime="107.00" waitingCount="4" stopTime="0.00" timeLoss="129.43" rerouteNo="0" devices="tripinfo_veh_6" vType="car" speedFactor="1.05" vaporized=""/>
    <tripinfo id="veh_37" depart="69.00" departLane="E9_0" departPos="5.10" departSpeed="13.89" departDelay="0.69" arrival="196.00" arrivalLane="-E18_1" arrivalPos="136.40" arrivalSpeed="13.42" duration="127.00" routeLength="383.93" waitingTime="86.00" waitingCount="2" stopTime="0.00" timeLoss="97.91" rerouteNo="0" devices="tripinfo_veh_37" vType="car" speedFactor="1.18" vaporized=""/>
    <tripinfo id="veh_7" depart="14.00" departLane="E9_1" departPos="5.10" departSpeed="10.23" departDelay="1.20" arrival="197.00" arrivalLane="E5_0" arrivalPos="136.40" arrivalSpeed="12.19" duration="183.00" routeLength="681.98" waitingTime="101.00" waitingCount="4" stopTime="0.00" timeLoss="124.70" rerouteNo="0" devices="tripinfo_veh_7" vType="car" speedFactor="0.89" vaporized=""/>
    <tripinfo id="veh_75" depart="137.00" departLane="E9_0" departPos="5.10" departSpeed="13.68" departDelay="0.96" arrival="198.00" arrivalLane="-E18_1" arrivalPos="136.40" arrivalSpeed="12.51" duration="61.00" routeLength="383.93" waitingTime="20.00" waitingCount="1" stopTime="0.00" timeLoss="31.09" rerouteNo="0" devices="tripinfo_veh_75" vType="car" speedFactor="0.98" vaporized=""/>
    <tripinfo id="veh_79" depart="144.00" departLane="E9_0" departPos="5.10" departSpeed="13.89" departDelay="0.63" arrival="199.00" arrivalLane="-E18_1" arrivalPos="136.40" arrivalSpeed="12.79" duration="55.00" routeLength="383.93" waitingTime="17.00" waitingCount="1" stopTime="0.00" timeLoss="26.55" rerouteNo="0" devices="tripinfo_veh_79" vType="car" speedFactor="1.09" vaporized=""/>
    <tripinfo id="veh_9" depart="15.00" departLane="E9_1" departPos="5.10" departSpeed="7.01" departDelay="1.04" arrival="201.00" arrivalLane="E5_0" arrivalPos="136.40" arrivalSpeed="11.09" duration="186.00" routeLength="681.98" waitingTime="94.00" waitingCount="4" stopTime="0.00" timeLoss="125.22" rerouteNo="0" devices="tripinfo_veh_9" vType="car" speedFactor="0.86" vaporized=""/>
    <tripinfo id="veh_42" depart="78.00" departLane="-E5_1" departPos="5.10" departSpeed="13.89" departDelay="0.96" arrival="201.00" arrivalLane="-E18_1" arrivalPos="136.40" arrivalSpeed="12.71" duration="123.00" routeLength="613.81" waitingTime="55.00" waitingCount="3" stopTime="0.00" timeLoss="77.93" rerouteNo="0" devices="tripinfo_veh_42" vType="car" speedFactor="1.09" vaporized=""/>
    <tripinfo id="veh_15" depart="21.00" departLane="E9_1" departPos="5.10" departSpeed="12.87" departDelay="0.97" arrival="203.00" arrivalLane="E5_0" arrivalPos="136.40" arrivalSpeed="12.79" duration="182.00" routeLength="681.98" waitingTime="88.00" waitingCount="3" stopTime="0.00" timeLoss="125.64" rerouteNo="0" devices="tripinfo_veh_15" vType="car" speedFactor="0.93" vaporized=""/>
    <tripinfo id="veh_57" depart="97.00" departLane="-E5_1" departPos="5.10" departSpeed="13.89" departDelay="0.30" arrival="203.00" arrivalLane="-E18_1" arrivalPos="136.40" arrivalSpeed="13.37" duration="106.00" routeLength="613.81" waitingTime="38.00" waitingCount="3" stopTime="0.00" timeLoss="60.85" rerouteNo="0" devices="tripinfo_veh_57" vType="car" speedFactor="1.14" vaporized=""/>
    <tripinfo id="veh_13" depart="17.00" departLane="E9_1" departPos="5.10" departSpeed="8.14" departDelay="0.64" arrival="204.00" arrivalLane="E5_0" arrivalPos="136.40" arrivalSpeed="13.78" duration="187.00" routeLength="681.98" waitingTime="95.00" waitingCount="6" stopTime="0.00" timeLoss="135.94" rerouteNo="0" devices="tripinfo_veh_13" vType="car" speedFactor="1.12" vaporized=""/>
    <tripinfo id="veh_62" depart="111.00" departLane="-E5_1" departPos="5.10" departSpeed="13.89" departDelay="0.20" arrival="205.00" arrivalLane="-E18_1" arrivalPos="136.40" arrivalSpeed="13.73" duration="94.00" routeLength="613.81" waitingTime="25.00" waitingCount="3" stopTime="0.00" timeLoss="48.49" rerouteNo="0" devices="tripinfo_veh_62" vType="car" speedFactor="1.02" vaporized=""/>
    <tripinfo id="veh_84" depart="153.00" departLane="E10_1" departPos="5.10" departSpeed="13.89" departDelay="0.03" arrival="207.00" arrivalLane="-E17_0" arrivalPos="136.40" arrivalSpeed="13.02" duration="54.00" routeLength="383.93" waitingTime="18.00" waitingCount="1" stopTime="0.00" timeLoss="25.67" rerouteNo="0" devices="tripinfo_veh_84" vType="car" speedFactor="1.15" vaporized=""/>
    <tripinfo id="veh_39" depart="74.00" departLane="E14_2" departPos="5.10" departSpeed="12.51" departDelay="0.01" arrival="223.00" arrivalLane="E4_2" arrivalPos="136.40" arrivalSpeed="12.33" duration="149.00" routeLength="485.75" waitingTime="94.00" waitingCount="3" stopTime="0.00" timeLoss="107.97" rerouteNo="0" devices="tripinfo_veh_39" vType="car" speedFactor="0.90" vaporized=""/>
    <tripinfo id="veh_51" depart="84.00" departLane="E14_2" departPos="5.10" departSpeed="13.89" departDelay="0.39" arrival="225.00" arrivalLane="E4_2" arrivalPos="136.40" arrivalSpeed="13.35" duration="141.00" routeLength="485.75" waitingTime="84.00" waitingCount="3" stopTime="0.00" timeLoss="104.55" rerouteNo="0" devices="tripinfo_veh_51" vType="car" speedFactor="1.17" vaporized=""/>
    <tripinfo id="veh_69" depart="122.00" departLane="E14_2" departPos="5.10" departSpeed="13.89" departDelay="0.23" arrival="227.00" arrivalLane="E4_2" arrivalPos="136.40" arrivalSpeed="12.93" duration="105.00" routeLength="485.75" waitingTime="56.00" waitingCount="1" stopTime="0.00" timeLoss="67.76" rerouteNo="0" devices="tripinfo_veh_69" vType="car" speedFactor="1.02" vaporized=""/>
    <tripinfo id="veh_81" depart="146.00" departLane="-E2_1" departPos="5.10" departSpeed="13.86" departDelay="0.37" arrival="228.00" arrivalLane="E4_2" arrivalPos="136.40" arrivalSpeed="13.28" duration="82.00" routeLength="399.41" waitingTime="40.00" waitingCount="2" stopTime="0.00" timeLoss="52.50" rerouteNo="0" devices="tripinfo_veh_81" vType="car" speedFactor="1.00" vaporized=""/>
    <tripinfo id="veh_85" depart="154.00" departLane="-E2_1" departPos="5.10" departSpeed="13.56" departDelay="0.53" arrival="230.00" arrivalLane="E4_2" arrivalPos="136.40" arrivalSpeed="13.06" duration="76.00" routeLength="399.41" waitingTime="32.00" waitingCount="2" stopTime="0.00" timeLoss="45.83" rerouteNo="0" devices="tripinfo_veh_85" vType="car" speedFactor="0.98" vaporized=""/>
    <tripinfo id="veh_77" depart="143.00" departLane="E10_1" departPos="5.10" departSpeed="13.64" departDelay="0.81" arrival="239.00" arrivalLane="E19_0" arrivalPos="136.40" arrivalSpeed="13.03" duration="96.00" routeLength="488.44" waitingTime="40.00" waitingCount="3" stopTime="0.00" timeLoss="58.38" rerouteNo="0" devices="tripinfo_veh_77" vType="car" speedFactor="0.98" vaporized=""/>
    <tripinfo id="veh_91" depart="170.00" departLane="-E2_0" departPos="5.10" departSpeed="12.39" departDelay="0.60" arrival="239.00" arrivalLane="-E14_0" arrivalPos="136.40" arrivalSpeed="11.92" duration="69.00" routeLength="365.76" waitingTime="28.00" waitingCount="1" stopTime="0.00" timeLoss="38.29" rerouteNo="0" devices="tripinfo_veh_91" vType="car" speedFactor="0.89" vaporized=""/>
    <tripinfo id="veh_63" depart="114.00" departLane="E10_2" departPos="5.10" departSpeed="13.71" departDelay="0.89" arrival="240.00" arrivalLane="E5_1" arrivalPos="136.40" arrivalSpeed="13.70" duration="126.00" routeLength="506.61" waitingTime="61.00" waitingCount="1" stopTime="0.00" timeLoss="87.69" rerouteNo="0" devices="tripinfo_veh_63" vType="car" speedFactor="0.99" vaporized=""/>
    <tripinfo id="veh_66" depart="121.00" departLane="E14_0" departPos="5.10" departSpeed="12.60" departDelay="0.68" arrival="241.00" arrivalLane="-E9_1" arrivalPos="136.40" arrivalSpeed="11.78" duration="120.00" routeLength="383.93" waitingTime="77.00" waitingCount="2" stopTime="0.00" timeLoss="88.93" rerouteNo="0" devices="tripinfo_veh_66" vType="car" speedFactor="0.91" vaporized=""/>
    <tripinfo id="veh_88" depart="168.00" departLane="E14_2" departPos="5.10" departSpeed="13.89" departDelay="0.91" arrival="241.00" arrivalLane="E5_1" arrivalPos="136.40" arrivalSpeed="13.88" duration="73.00" routeLength="399.41" waitingTime="31.00" waitingCount="2" stopTime="0.00" timeLoss="43.69" rerouteNo="0" devices="tripinfo_veh_88" vType="car" speedFactor="1.01" vaporized=""/>
    <tripinfo id="veh_86" depart="166.00" departLane="E14_0" departPos="5.10" departSpeed="13.89" departDelay="0.52" arrival="243.00" arrivalLane="-E9_1" arrivalPos="136.40" arrivalSpeed="13.69" duration="77.00" routeLength="383.93" waitingTime="34.00" waitingCount="2" stopTime="0.00" timeLoss="48.13" rerouteNo="0" devices="tripinfo_veh_86" vType="car" speedFactor="1.00" vaporized=""/>
    <tripinfo id="veh_95" depart="175.00" departLane="E14_2" departPos="5.10" departSpeed="13.89" departDelay="0.27" arrival="243.00" arrivalLane="E5_1" arrivalPos="136.40" arrivalSpeed="13.10" duration="68.00" routeLength="399.41" waitingTime="24.00" waitingCount="2" stopTime="0.00" timeLoss="38.48" rerouteNo="0" devices="tripinfo_veh_95" vType="car" speedFactor="1.06" vaporized=""/>
    <tripinfo id="veh_61" depart="110.00" departLane="E10_1" departPos="5.10" departSpeed="13.89" departDelay="0.83" arrival="248.00" arrivalLane="E4_1" arrivalPos="136.40" arrivalSpeed="13.06" duration="138.00" routeLength="613.81" waitingTime="73.00" waitingCount="3" stopTime="0.00" timeLoss="93.03" rerouteNo="0" devices="tripinfo_veh_61" vType="car" speedFactor="1.12" vaporized=""/>
    <tripinfo id="veh_67" depart="121.00" departLane="E10_2" departPos="5.10" departSpeed="12.70" departDelay="0.61" arrival="255.00" arrivalLane="E5_1" arrivalPos="136.40" arrivalSpeed="12.35" duration="134.00" routeLength="506.61" waitingTime="80.00" waitingCount="2" stopTime="0.00" timeLoss="93.49" rerouteNo="0" devices="tripinfo_veh_67" vType="car" speedFactor="0.91" vaporized=""/>
    <tripinfo id="veh_93" depart="174.00" departLane="E10_2" departPos="5.10" departSpeed="8.83" departDelay="0.36" arrival="258.00" arrivalLane="E5_1" arrivalPos="136.40" arrivalSpeed="12.68" duration="84.00" routeLength="506.61" waitingTime="26.00" waitingCount="1" stopTime="0.00" timeLoss="43.07" rerouteNo="0" devices="tripinfo_veh_93" vType="car" speedFactor="0.92" vaporized=""/>
    <tripinfo id="veh_71" depart="128.00" departLane="E10_2" departPos="5.10" departSpeed="13.51" departDelay="0.03" arrival="260.00" arrivalLane="E5_1" arrivalPos="136.40" arrivalSpeed="12.23" duration="132.00" routeLength="506.61" waitingTime="78.00" waitingCount="3" stopTime="0.00" timeLoss="93.15" rerouteNo="0" devices="tripinfo_veh_71" vType="car" speedFactor="0.97" vaporized=""/>
    <tripinfo id="veh_76" depart="141.00" departLane="E10_2" departPos="5.10" departSpeed="13.89" departDelay="0.04" arrival="262.00" arrivalLane="E5_1" arrivalPos="136.40" arrivalSpeed="13.64" duration="121.00" routeLength="506.61" waitingTime="65.00" waitingCount="2" stopTime="0.00" timeLoss="83.04" rerouteNo="0" devices="tripinfo_veh_76" vType="car" speedFactor="1.03" vaporized=""/>
    <tripinfo id="veh_70" depart="123.00" departLane="-E2_0" departPos="5.10" departSpeed="13.89" departDelay="0.76" arrival="283.00" arrivalLane="-E17_0" arrivalPos="136.40" arrivalSpeed="13.00" duration="160.00" routeLength="577.47" waitingTime="93.00" waitingCount="4" stopTime="0.00" timeLoss="117.03" rerouteNo="0" devices="tripinfo_veh_70" vType="car" speedFactor="1.02" vaporized=""/>
    <tripinfo id="veh_17" depart="23.00" departLane="E9_1" departPos="5.10" departSpeed="13.08" departDelay="0.69" arrival="284.00" arrivalLane="E5_0" arrivalPos="136.40" arrivalSpeed="12.98" duration="261.00" routeLength="681.98" waitingTime="171.00" waitingCount="5" stopTime="0.00" timeLoss="206.45" rerouteNo="0" devices="tripinfo_veh_17" vType="car" speedFactor="0.94" vaporized=""/>
    <tripinfo id="veh_36" depart="67.00" departLane="-E5_1" departPos="5.10" departSpeed="13.52" departDelay="0.61" arrival="285.00" arrivalLane="E19_1" arrivalPos="136.40" arrivalSpeed="13.28" duration="218.00" routeLength="506.61" waitingTime="156.00" waitingCount="4" stopTime="0.00" timeLoss="179.95" rerouteNo="0" devices="tripinfo_veh_36" vType="car" speedFactor="0.97" vaporized=""/>
    <tripinfo id="veh_110" depart="221.00" departLane="E9_0" departPos="5.10" departSpeed="12.89" departDelay="0.65" arrival="285.00" arrivalLane="-E18_1" arrivalPos="136.40" arrivalSpeed="12.04" duration="64.00" routeLength="383.93" waitingTime="25.00" waitingCount="1" stopTime="0.00" timeLoss="32.96" rerouteNo="0" devices="tripinfo_veh_110" vType="car" speedFactor="0.93" vaporized=""/>
    <tripinfo id="veh_20" depart="29.00" departLane="E9_1" departPos="5.10" departSpeed="13.89" departDelay="0.09" arrival="286.00" arrivalLane="E5_0" arrivalPos="136.40" arrivalSpeed="13.42" duration="257.00" routeLength="681.98" waitingTime="165.00" waitingCount="5" stopTime="0.00" timeLoss="204.73" rerouteNo="0" devices="tripinfo_veh_20" vType="car" speedFactor="1.02" vaporized=""/>
    <tripinfo id="veh_80" depart="146.00" departLane="-E2_0" departPos="5.10" departSpeed="13.89" departDelay="0.98" arrival="286.00" arrivalLane="-E17_0" arrivalPos="136.40" arrivalSpeed="13.84" duration="140.00" routeLength="577.47" waitingTime="68.00" waitingCount="4" stopTime="0.00" timeLoss="96.26" rerouteNo="0" devices="tripinfo_veh_80" vType="car" speedFactor="1.03" vaporized=""/>
    <tripinfo id="veh_73" depart="133.00" departLane="-E5_1" departPos="5.10" departSpeed="13.89" departDelay="0.09" arrival="287.00" arrivalLane="E19_1" arrivalPos="136.40" arrivalSpeed="12.64" duration="154.00" routeLength="506.61" waitingTime="93.00" waitingCount="3" stopTime="0.00" timeLoss="116.91" rerouteNo="0" devices="tripinfo_veh_73" vType="car" speedFactor="1.06" vaporized=""/>
    <tripinfo id="veh_83" depart="152.00" departLane="-E5_1" departPos="5.10" departSpeed="13.43" departDelay="0.05" arrival="287.00" arrivalLane="-E18_1" arrivalPos="136.40" arrivalSpeed="12.37" duration="135.00" routeLength="613.81" waitingTime="68.00" waitingCount="2" stopTime="0.00" timeLoss="88.48" rerouteNo="0" devices="tripinfo_veh_83" vType="car" speedFactor="0.97" vaporized=""/>
    <tripinfo id="veh_43" depart="78.00" departLane="E9_1" departPos="5.10" departSpeed="13.89" departDelay="0.28" arrival="288.00" arrivalLane="E5_0" arrivalPos="136.40" arrivalSpeed="13.66" duration="210.00" routeLength="681.98" waitingTime="124.00" waitingCount="4" stopTime="0.00" timeLoss="158.71" rerouteNo="0" devices="tripinfo_veh_43" vType="car" speedFactor="1.04" vaporized=""/>
    <tripinfo id="veh_89" depart="168.00" departLane="-E5_1" departPos="5.10" departSpeed="13.89" departDelay="0.81" arrival="289.00" arrivalLane="-E18_1" arrivalPos="136.40" arrivalSpeed="12.77" duration="121.00" routeLength="613.81" waitingTime="51.00" waitingCount="2" stopTime="0.00" timeLoss="75.67" rerouteNo="0" devices="tripinfo_veh_89" vType="car" speedFactor="1.02" vaporized=""/>